  271
Geometry Step: 151
    O     28.07949163     28.04653499     35.33719591      7.64604154
    O     34.16903360     30.82516686     29.29027865      7.59463502
    O     29.84628316     25.95354393     35.99250683      7.33132294
   Ti     31.85532294     26.07002606     35.56399414      1.57535508
    O     31.90263606     25.65744528     37.62847586      7.06454587
    O     30.76329658     27.97234210     31.79065614      7.59929395
   Ti     32.20610932     27.95587283     33.16151751      1.69435796
    O     32.11894380     28.02544241     35.21833751      7.06213876
    O     31.92255023     25.94595953     33.53664144      7.34317481
    O     33.87315912     25.69424363     35.84397273      7.13281949
   Ti     35.90251037     26.00988761     35.55503572      1.58023287
    O     35.81632060     25.51633350     37.59977520      7.05959083
    O     34.01076178     27.96262052     32.31256814      7.23743266
   Ti     35.79978172     27.95290950     33.19359896      1.69632802
    O     35.94476259     27.99204530     35.24782295      7.06753435
    O     35.86863524     25.91560851     33.53118444      7.34215734
    O     37.89815931     25.73918309     35.97243523      7.33643404
    O     37.27442756     27.86968516     31.86605834      7.59415191
    O     40.20858485     27.94249538     35.43079100      7.64412697
    O     29.66260189     34.06774319     29.82678049      7.18477414
    O     25.99071795     29.82626433     36.24064239      7.33045381
   Ti     27.94542007     30.05290519     35.59680659      1.76216369
    O     28.13709615     30.60598171     37.59393069      7.07774028
   Ti     28.16505940     32.21709976     33.42400329      1.43369012
    O     28.33722070     32.10849569     35.41443280      7.09422715
    O     27.44445409     30.35456291     33.61318774      7.31504409
    O     34.04479864     34.06665221     29.78014908      7.23738360
   Ti     30.14531274     32.32037154     30.61740635      1.13548593
    O     30.02549830     29.95398473     35.91654045      7.18066880
   Ti     32.06089723     30.05171287     35.52864946      1.71677398
    O     32.07570874     30.07384143     37.60338273      7.11837973
    O     29.98989329     32.18538461     32.61243346      6.99246967
   Ti     32.02825009     32.03382508     33.04293528      1.69052120
    O     32.08760530     32.02554603     30.95458610      7.06072293
    O     31.98001493     32.06014184     35.12254286      7.12549412
    O     32.03632625     30.00178298     33.44530559      7.14115019
    O     38.71551691     34.06438930     30.06847777      7.18507583
   Ti     34.09468706     32.27377323     30.64825104      1.68323754
    O     34.10253518     30.15634060     35.89741461      7.15878454
   Ti     36.15304082     30.02389155     35.56911922      1.70387409
    O     36.10520316     30.03224328     37.64612954      7.12543326
    O     34.07377131     32.05149366     32.69939174      7.12410571
   Ti     36.10745833     32.03189643     33.10579222      1.68932252
    O     36.10658791     32.17290268     31.01886268      7.06305597
    O     36.24272926     32.04347923     35.18317507      7.13501223
    O     36.06602695     29.99071589     33.48634307      7.14331357
   Ti     38.07176275     32.31861512     30.73979974      1.13628475
    O     38.18597658     29.90883027     35.98463797      7.16965030
   Ti     40.26990640     29.94612409     35.71343022      1.76154589
    O     40.14523716     30.02468640     37.79917013      7.08058240
    O     38.15701255     32.07708376     32.72914743      6.99099535
   Ti     39.95206866     32.14228625     33.59310054      1.41985216
    O     40.00212127     32.03189647     35.60338480      7.11120028
    O     40.62564669     30.25338209     33.69183657      7.32729395
    O     42.29108539     29.93261510     36.17299346      7.33987344
    O     25.95490043     34.07192219     36.36821538      7.34269566
   Ti     27.94956719     34.07143391     35.85908409      1.70900867
    O     28.12114462     34.09194175     37.93520851      7.07892731
   Ti     28.15697356     35.93235246     33.41880835      1.43113959
    O     28.33933862     36.03434219     35.40808007      7.09363551
    O     27.43123812     34.07306515     33.79481228      7.07140363
    O     34.16735568     37.30646627     29.29474566      7.59427105
   Ti     30.14398156     35.81257827     30.62431756      1.13552820
    O     30.06482711     34.07718172     36.04571875      7.18706854
   Ti     32.09052073     34.06305081     35.54176973      1.70732649
    O     32.15211807     34.01078673     37.61500917      7.12645303
    O     29.98733360     35.95840805     32.61872321      6.99302110
   Ti     32.02677242     36.10355251     33.05013238      1.68942578
    O     32.08639456     36.10406271     30.96143163      7.06064593
    O     31.99234609     36.07341165     35.13086949      7.12639863
    O     32.10443411     34.06812330     33.43879871      7.16204064
   Ti     34.09318733     35.85790866     30.65241773      1.68310873
    O     34.13574117     34.06911539     35.94362891      7.16476011
   Ti     36.18428066     34.06791184     35.58731720      1.70691568
    O     36.14161235     34.08019813     37.66813317      7.12162514
    O     34.07234246     36.09124465     32.70271334      7.12442494
   Ti     36.10604388     36.10683078     33.10842806      1.68925284
    O     36.10524358     35.95841777     31.02213200      7.06301632
    O     36.25176259     36.08815836     35.18473234      7.13338955
    O     36.08095320     34.06892797     33.50266324      7.15514499
   Ti     38.07026899     35.80839856     30.74380485      1.13592433
    O     38.20611713     34.05735634     36.07144643      7.17331547
   Ti     40.29035678     34.06176033     35.89636491      1.71901834
    O     40.17508647     34.05316571     37.96234264      7.07330393
    O     38.15546125     36.05879334     32.73207990      6.99103381
   Ti     39.94709866     35.98532894     33.60223226      1.42114000
    O     39.99945846     36.09108750     35.61316334      7.10926458
    O     40.59250753     34.06466440     33.81320576      7.07223957
    O     42.31084170     34.06752203     36.25367963      7.34061112
    O     26.00947808     38.34200881     36.26664742      7.32757971
   Ti     27.95517250     38.08260706     35.61381249      1.76297474
    O     28.15159804     37.48341930     37.60105257      7.07865740
    O     28.11561088     40.09094878     35.38363645      7.64656202
    O     27.44822612     37.79878960     33.62879406      7.31604079
    O     30.03578825     38.16633768     35.92672551      7.18022265
   Ti     32.06984056     38.07900138     35.53584349      1.71745464
    O     32.08286466     38.10824297     37.61107841      7.12094098
    O     30.74903779     40.17629962     31.81716071      7.59886551
   Ti     32.20453824     40.18358642     33.17422863      1.69496071
    O     32.12078935     40.10887672     35.22890405      7.06191013
    O     32.03392108     38.13605111     33.45312023      7.14175250
    O     34.11071517     37.97056226     35.90246498      7.15846797
   Ti     36.16252197     38.10608471     35.58033406      1.70401445
    O     36.11359336     38.06177085     37.65713965      7.12497971
    O     34.01012880     40.17055431     32.32661190      7.23794225
   Ti     35.79527139     40.18502362     33.21633462      1.69636912
    O     35.94046082     40.13547571     35.27038073      7.06677942
    O     36.06979921     38.14673022     33.49785453      7.14351935
    O     38.19477119     38.22137808     36.00062823      7.17035805
   Ti     40.27933999     38.17178831     35.72761740      1.76155353
    O     40.15342909     38.09609043     37.81438347      7.08127545
    O     37.27991576     40.27986640     31.90121858      7.59395272
    O     40.22320937     40.17506947     35.44425030      7.64435027
    O     40.63424261     37.86846916     33.70461602      7.32707015
    O     42.30057895     38.18306989     36.18871532      7.33992468
    O     29.85546468     42.21927593     35.98981228      7.33022875
   Ti     31.86562739     42.06287143     35.58450040      1.57765010
    O     31.89895376     42.40094954     37.66159346      7.06530899
    O     31.93885892     42.19485569     33.55612666      7.34492044
    O     33.87705845     42.45078797     35.88223314      7.13038752
   Ti     35.90205917     42.11789801     35.58478103      1.58000927
    O     35.82602869     42.60255858     37.63274152      7.06134744
    O     35.85899354     42.22114511     33.56213650      7.34176826
    O     37.90142706     42.37465905     35.99351124      7.33598482
    O     29.37344247     26.11557811     39.94111073      7.34723361
    O     33.81443862     25.90075093     39.92195521      7.33921119
    O     37.88965886     25.83132043     39.99272907      7.34671208
    O     26.96373249     30.06060656     40.12130611      6.49827653
    O     29.89316640     30.12305037     40.09521820      7.13433976
    O     27.52659872     28.82291988     40.72527945      6.70798974
   Ti     30.01333252     26.21890045     38.00703574      1.39135633
    O     33.93679297     30.00051114     40.06595067      7.17117153
   Ti     29.54802421     28.13081125     40.40696322      1.67608784
    O     29.68868319     28.16529820     38.31192214      7.07665527
    O     29.83736290     27.87202647     42.42958098      7.32323780
   Ti     31.81458994     28.28539621     42.51049052      1.38268622
    O     31.70017705     28.12923549     40.49368729      7.13719682
   Ti     33.88001039     26.04661428     37.90122326      1.60404275
    O     38.11455682     29.93252506     40.16917934      7.17484723
   Ti     33.76591094     27.92697604     40.24560245      1.70882666
    O     33.95531431     28.02283759     38.18445014      7.07885647
    O     33.74603984     27.62955796     42.31239205      7.07715367
   Ti     35.68692537     28.21224034     42.54853126      1.41699874
    O     35.82664068     28.15162706     40.53938618      7.12348674
   Ti     37.71055766     26.03531335     37.98330378      1.39679826
    O     42.37215316     30.01391258     40.16204121      7.33373413
   Ti     37.91111152     27.85368073     40.45990319      1.75573791
    O     37.99309652     27.97259672     38.37507467      7.08258402
    O     37.54209624     27.45073782     42.46708304      7.33202390
    O     39.89806627     27.80747195     40.86195366      7.64904982
    O     25.97372596     34.06826678     40.48506910      7.16230163
   Ti     26.27365337     30.28147752     38.19010430      1.37121394
    O     30.48380520     34.06075868     40.20012720      7.16106004
   Ti     26.41345163     32.03011104     40.71592073      1.51984300
    O     25.66650609     32.09879373     38.77500407      7.04830872
    O     26.23699201     31.85105376     42.71612059      7.31601012
   Ti     28.18551336     32.31277612     43.16348791      1.69480650
    O     28.27699471     32.62325392     41.11268510      7.06716806
    O     28.21134016     30.91413899     44.59503329      7.61524338
   Ti     30.08079346     30.14077324     38.00722288      1.73392837
    O     34.11893017     34.05652844     40.15799196      7.15717049
   Ti     30.18311522     32.07008672     40.63176617      1.73360675
    O     30.30167745     32.09486767     38.54889149      7.12824834
   Ti     32.45231494     30.07081818     45.47668571      1.13393406
    O     30.15507048     31.91385845     42.73131316      7.13831251
   Ti     32.17380771     32.03783587     43.12769346      1.70392766
    O     32.16891150     31.93579971     41.04953333      7.12177184
    O     32.32927676     32.04073909     45.21085788      7.06096245
    O     32.20459157     29.98684068     43.48713119      6.99804840
   Ti     34.08690539     30.07247285     37.98291453      1.72441305
    O     38.11091132     34.05261409     40.24386253      7.16570755
   Ti     34.15151535     32.01647970     40.55371186      1.70627802
    O     34.18158933     32.05657498     38.47229592      7.12354833
    O     34.19741698     29.52919172     46.23323912      7.18533165
   Ti     35.91664522     30.08805968     45.42745758      1.13501220
    O     34.17680337     32.15564405     42.65550302      7.15506540
   Ti     36.20010925     32.01857073     43.04574544      1.69806484
    O     36.15865635     31.92090179     40.96593173      7.12565215
    O     36.25429558     32.03396156     45.14308081      7.06826440
    O     35.95019063     29.98664599     43.42644936      6.99065275
   Ti     38.10865431     30.00715710     38.07707801      1.71221188
    O     42.39580726     34.05351606     40.34851736      7.13420432
   Ti     38.16790999     31.98315654     40.55862550      1.70157944
    O     38.10901617     32.02319376     38.48544600      7.13062362
    O     38.22154043     31.98313123     42.64233125      7.13682630
   Ti     40.25430957     32.22372918     42.95731878      1.69588246
    O     40.20020967     32.03209926     40.90331047      7.06793083
    O     40.27765028     30.79845240     44.34118712      7.59523155
   Ti     42.09361492     30.26555661     38.15931522      1.40441919
   Ti     42.18425706     32.01205174     40.61182048      1.57928870
    O     42.70493250     32.12768039     38.57500374      7.05653359
    O     42.28498364     32.07014833     42.63228690      7.33645434
    O     26.96505457     38.07647903     40.13789595      6.49599377
   Ti     26.16333981     34.07384872     38.39536030      1.55692923
    O     29.87934192     37.99361234     40.10243417      7.13563530
   Ti     26.41027303     36.10594114     40.72531285      1.51855621
    O     25.65844874     36.04266730     38.78494737      7.04799644
    O     26.24715515     36.28659108     42.72663502      7.31603313
   Ti     28.19503284     35.81232418     43.16140294      1.69676052
    O     28.28050724     35.52169115     41.10719375      7.06845128
    O     28.12890970     34.06343104     44.09772464      7.21550825
   Ti     30.17149819     34.06999159     38.12256811      1.74611298
    O     33.95609910     38.11252436     40.06864340      7.16549971
   Ti     30.19745584     36.04846909     40.63519953      1.73338950
    O     30.39107612     36.03488419     38.55542636      7.12619225
    O     31.07476130     34.16874715     46.91117796      7.58028558
   Ti     32.50602882     34.05053113     45.55457438      1.68783447
    O     30.17401873     36.15521130     42.73640302      7.14174830
   Ti     32.19824560     36.09929244     43.14051053      1.70275278
    O     32.18238863     36.18413668     41.06220980      7.12230443
    O     32.63314883     36.05970404     45.18207568      7.05971878
    O     32.07966461     34.06805768     43.53461552      7.12084320
   Ti     34.13973900     34.05544741     38.05404205      1.73773269
    O     38.12772271     38.17657931     40.18623956      7.17759269
   Ti     34.15872376     36.09757312     40.54215721      1.70860360
    O     34.12663828     36.05924079     38.46067980      7.12286789
    O     34.30730153     33.93905845     46.41800073      7.24961501
   Ti     36.06376443     34.04858567     45.47799019      1.68524136
    O     34.19130981     36.03028231     42.64334676      7.14378852
   Ti     36.20098837     36.08689382     43.03823160      1.70157246
    O     36.16885437     36.17692261     40.95559019      7.12791570
    O     36.03469393     36.07237749     45.13238566      7.07006250
    O     36.24428324     34.05326617     43.42771145      7.11838769
   Ti     38.12486699     34.05714535     38.15963296      1.72005874
    O     42.38652882     38.09428654     40.17780804      7.33338654
   Ti     38.18114654     36.12129931     40.56319617      1.70111615
    O     38.13239419     36.08983635     38.49004289      7.13035954
    O     37.59704371     34.13495458     46.72857122      7.58742999
    O     38.22938796     36.07532974     42.64681008      7.14016736
   Ti     40.26371606     35.85997151     42.96168620      1.69670415
    O     40.21297325     36.07954558     40.91033248      7.06770189
    O     40.22978920     34.04055613     43.78294781      7.24148263
   Ti     42.14648929     34.05824104     38.27911978      1.61027095
   Ti     42.19740238     36.09536889     40.62110877      1.57845218
    O     42.70907012     35.98476071     38.58153086      7.05607790
    O     42.29537162     36.01586046     42.64160678      7.33709927
   Ti     26.29755092     37.85103954     38.20452805      1.37694091
    O     29.38126924     42.00676058     39.93742934      7.34711095
    O     27.52913566     39.31166242     40.74420857      6.70500285
    O     28.25528093     37.22217037     44.58029101      7.61422920
   Ti     30.08930085     37.97823911     38.01603028      1.73387768
    O     33.80979293     42.20614361     39.95517390      7.33906217
   Ti     29.54787055     39.99134568     40.40859931      1.67619561
    O     29.65139668     39.94597871     38.31232987      7.07422875
   Zr     32.50569156     38.13402545     45.63028472      1.29690346
    O     29.83635111     40.29967861     42.42370010      7.32324236
   Ti     31.80255665     39.84084440     42.51380025      1.38521165
    O     31.70440266     39.96985533     40.49586838      7.13810778
    O     32.05841328     38.14043723     43.53560385      6.99897050
   Ti     34.09437124     38.04726857     37.98761382      1.72602206
    O     37.93310675     42.28136305     40.00923191      7.34613904
   Ti     33.77544417     40.17719530     40.26740474      1.70738618
    O     33.99705582     40.09706598     38.20769049      7.07990561
    O     34.42907011     38.88690330     46.09374035      7.18325881
   Ti     36.08158773     38.04539769     45.41246001      1.13988611
    O     33.75864293     40.42808757     42.33941282      7.07659651
   Ti     35.71557217     39.89623734     42.56968010      1.41362756
    O     35.84539108     39.96806382     40.56175755      7.12574077
    O     36.14022248     38.13329038     43.41149164      6.99241741
   Ti     38.11603553     38.10717607     38.09276596      1.71191936
   Ti     37.92966771     40.25955925     40.47912584      1.75490131
    O     37.98655477     40.13868966     38.39589161      7.07949341
    O     37.54949678     40.70788977     42.47558862      7.33448894
    O     39.91428334     40.28271105     40.89656171      7.64878925
    O     40.27976295     37.28598776     44.34322838      7.59384944
   Ti     42.10114537     37.85052460     38.17494508      1.40425910
   Ti     29.99051220     41.88542532     37.99612114      1.39609833
   Ti     33.88759386     42.07115212     37.93448876      1.60201959
   Ti     37.72070613     42.07621031     38.00413465      1.39958878
    H     30.62219244     38.32349863     46.91515030      0.91549525
    H     31.16531554     38.39238170     47.46246241      0.91558662
