  269
Geometry Step: 31
    O     28.09022933     28.04049105     35.32293228      7.64635576
    O     34.15182407     30.82111417     29.29034728      7.59414640
    O     29.85442279     25.94566554     35.99389054      7.33117401
   Ti     31.86358346     26.06695218     35.56261167      1.57478556
    O     31.91647195     25.65153818     37.62659654      7.06437769
    O     30.76708859     27.96646270     31.78917473      7.59903180
   Ti     32.20995150     27.95194923     33.15965466      1.69447589
    O     32.11696111     28.02337718     35.21527319      7.06182532
    O     31.92879584     25.94145383     33.53569662      7.34311328
    O     33.88469535     25.71092183     35.84148866      7.13287757
   Ti     35.91621807     26.01227861     35.55664486      1.57997685
    O     35.82490833     25.50745001     37.59918645      7.05935060
    O     34.01657544     27.95927365     32.31478336      7.23741522
   Ti     35.80558538     27.95206695     33.19577476      1.69623234
    O     35.95115900     27.99455536     35.25026848      7.06778101
    O     35.88535975     25.91540835     33.53378328      7.34116246
    O     37.91327559     25.76212004     35.98123373      7.33644000
    O     37.27789826     27.87387563     31.86512321      7.59445113
    O     40.21879937     27.95009031     35.44592380      7.64394722
    O     29.61734686     34.06507536     29.84479470      7.18469163
    O     25.99677776     29.80134643     36.23914790      7.33017592
   Ti     27.94695218     30.04574152     35.58844024      1.76180167
    O     28.13932235     30.61075927     37.58268744      7.07726662
   Ti     28.16394902     32.20620282     33.41085567      1.43341005
    O     28.33370223     32.10137730     35.40136163      7.09438431
    O     27.43621086     30.34714615     33.60707237      7.31526917
    O     34.09602342     34.06481328     29.77066317      7.23749858
   Ti     30.14530699     32.32107501     30.61407242      1.13556472
    O     30.02718021     29.95322803     35.90776205      7.18082440
   Ti     32.06323947     30.04984936     35.52261568      1.71671747
    O     32.07579904     30.06079349     37.59709777      7.11871867
    O     29.99200443     32.15713631     32.60703608      6.99275020
   Ti     32.03236720     32.03187974     33.03775943      1.69042962
    O     32.09391333     32.07258189     30.94982664      7.06089267
    O     31.98580513     32.05902806     35.11818024      7.12614586
    O     32.04332791     29.99913534     33.43939108      7.14154297
    O     38.69042111     34.06467332     30.04533452      7.18500689
   Ti     34.10612197     32.27389759     30.64455669      1.68330263
    O     34.10511919     30.15077505     35.89324791      7.15959889
   Ti     36.15782039     30.02583037     35.57224935      1.70416548
    O     36.10453761     30.05957801     37.64856851      7.12466290
    O     34.07790022     32.04622713     32.69487858      7.12378072
   Ti     36.11054127     32.02806535     33.10519123      1.69040076
    O     36.11560564     32.13474731     31.01729470      7.06253129
    O     36.24625666     32.04368127     35.18224177      7.13417897
    O     36.07572988     29.98874627     33.48940857      7.14265731
   Ti     38.07872804     32.31870396     30.74546594      1.13618709
    O     38.18918908     29.91030917     35.99610965      7.17060330
   Ti     40.27453237     29.95307902     35.73231789      1.76149455
    O     40.14135324     30.02686156     37.81751640      7.07965001
    O     38.16096671     32.09609483     32.73713109      6.99109245
   Ti     39.95135686     32.14736066     33.61161893      1.42134675
    O     39.99645331     32.03737756     35.62222198      7.11109540
    O     40.63345998     30.26215352     33.71140194      7.32674899
    O     42.29365886     29.94537931     36.20095842      7.34021628
    O     25.94962037     34.06492116     36.34927841      7.34223578
   Ti     27.94479888     34.06427079     35.84542715      1.70864027
    O     28.11042719     34.06441174     37.92232629      7.07983876
   Ti     28.16405842     35.92390479     33.41051341      1.43354723
    O     28.33324168     36.03101119     35.40095133      7.09450657
    O     27.43672575     34.06516936     33.77898237      7.07033310
    O     34.15194090     37.30834697     29.28938956      7.59415906
   Ti     30.14535618     35.80916174     30.61382368      1.13557687
    O     30.05907662     34.06601562     36.03570318      7.18614517
   Ti     32.08532161     34.06343142     35.53683882      1.70751303
    O     32.14363487     34.06562437     37.61057055      7.12550019
    O     29.99216815     35.97292840     32.60680530      6.99274391
   Ti     32.03255354     36.09816675     33.03732961      1.69044694
    O     32.09398195     36.05777904     30.94940153      7.06087867
    O     31.98659956     36.07170891     35.11778842      7.12605727
    O     32.09757618     34.06508324     33.43453070      7.16089471
   Ti     34.10613251     35.85596857     30.64404247      1.68330623
    O     34.13090199     34.06434692     35.93951394      7.16539346
   Ti     36.18063424     34.06682112     35.58599650      1.70622145
    O     36.13309757     34.06610785     37.66646963      7.12107681
    O     34.07803483     36.08388623     32.69433334      7.12376756
   Ti     36.11067252     36.10201771     33.10463602      1.69038723
    O     36.11560966     35.99515650     31.01676337      7.06251341
    O     36.24540626     36.08688197     35.18184988      7.13309048
    O     36.07608968     34.06512227     33.50024308      7.15546174
   Ti     38.07868219     35.81088826     30.74482096      1.13619047
    O     38.20119686     34.06589511     36.08012011      7.17474803
   Ti     40.28710049     34.06688345     35.91271526      1.71894176
    O     40.16400733     34.06643498     37.97828637      7.07311898
    O     38.16109752     36.03404419     32.73642653      6.99108444
   Ti     39.95209272     35.98306013     33.60968806      1.42099934
    O     39.99733829     36.09411568     35.62046567      7.10872317
    O     40.60212496     34.06517842     33.83093704      7.07169364
    O     42.30615487     34.06578396     36.27830967      7.34040600
    O     25.99641157     38.32642718     36.23765174      7.33036205
   Ti     27.94710001     38.08254062     35.58786869      1.76313533
    O     28.13911443     37.52200027     37.58342292      7.07747652
    O     28.09072506     40.08639678     35.32104030      7.64603904
    O     27.43578845     37.78285552     33.60572627      7.31579297
    O     30.02748210     38.17612945     35.90816174      7.18126207
   Ti     32.06328172     38.07670723     35.52235408      1.71704683
    O     32.07599804     38.06835148     37.59682280      7.11861591
    O     30.76667624     40.16357746     31.78956462      7.59905082
   Ti     32.20992544     40.17809950     33.15963775      1.69459009
    O     32.11671533     40.10691503     35.21511975      7.06359061
    O     32.04339570     38.13091234     33.43916296      7.14161338
    O     34.10534947     37.97944457     35.89308080      7.15975286
   Ti     36.15802751     38.10526770     35.57177330      1.70456594
    O     36.10475951     38.07148494     37.64821584      7.12491513
    O     34.01656966     40.17074230     32.31480418      7.23743150
   Ti     35.80579370     40.17781545     33.19533958      1.69626539
    O     35.95222688     40.13424387     35.24981613      7.06724731
    O     36.07615237     38.14122858     33.48878964      7.14267791
    O     38.18936015     38.21902829     35.99638550      7.17080677
   Ti     40.27475120     38.17450427     35.73189291      1.76236916
    O     40.14156029     38.10355671     37.81741928      7.07980838
    O     37.27772712     40.25629440     31.86432779      7.59443067
    O     40.21873628     40.17704092     35.44508104      7.64415109
    O     40.63389797     37.86837435     33.71024565      7.32706943
    O     42.29385482     38.18303464     36.20078836      7.34029598
    O     29.85459936     42.18505240     35.99261287      7.33102001
   Ti     31.86386467     42.06372131     35.56157847      1.57488339
    O     31.91701260     42.47841414     37.62573580      7.06450807
    O     31.92891119     42.18878418     33.53483348      7.34303640
    O     33.88535423     42.41891485     35.84008441      7.13282000
   Ti     35.91710475     42.11737467     35.55628722      1.57953006
    O     35.82542027     42.62096245     37.59924032      7.05963058
    O     35.88575844     42.21434911     33.53353421      7.34104591
    O     37.91392111     42.36792325     35.98178034      7.33644459
    O     29.37658370     26.11567050     39.93569715      7.34692293
    O     33.81878502     25.90727209     39.92046505      7.34029531
    O     37.90879447     25.84197700     39.99986877      7.34625741
    O     26.97635375     30.06222777     40.11390046      6.49890729
    O     29.87950491     30.12582305     40.08494630      7.13425876
    O     27.52903667     28.82140250     40.72149291      6.70756948
   Ti     30.02819776     26.21632613     38.00630444      1.39243166
    O     33.94337368     30.00593494     40.06246123      7.17002686
   Ti     29.55238558     28.13099110     40.40200452      1.67615797
    O     29.69910090     28.16311673     38.30544743      7.07772881
    O     29.83831594     27.84933508     42.42156580      7.32303868
   Ti     31.81395901     28.26805459     42.51105051      1.38472037
    O     31.70367606     28.13838622     40.49405450      7.13539685
   Ti     33.89167977     26.05174363     37.89990872      1.60479667
    O     38.11102688     29.94424837     40.18162163      7.17529382
   Ti     33.77040000     27.93454257     40.24616203      1.70814811
    O     33.96902159     28.02743168     38.18553661      7.07879094
    O     33.75265272     27.63237324     42.31334026      7.07800354
   Ti     35.69331253     28.21617168     42.55358229      1.41633725
    O     35.83141801     28.15110966     40.54509049      7.12346320
   Ti     37.71243376     26.04531852     37.99222587      1.39750060
    O     42.35237551     30.02517799     40.19332824      7.33357683
   Ti     37.91703785     27.86407785     40.46750141      1.75673173
    O     37.97185693     27.98590663     38.38349368      7.08174804
    O     37.55174235     27.46224027     42.47499323      7.33153718
    O     39.90727306     27.83075106     40.85498828      7.64909686
    O     25.95341885     34.06499427     40.46752555      7.16347367
   Ti     26.28002873     30.27236224     38.18457681      1.37199375
    O     30.47966870     34.06453979     40.18909238      7.16476292
   Ti     26.41001016     32.02961966     40.70345810      1.51924979
    O     25.66370738     32.08900228     38.76184124      7.04865656
    O     26.23480680     31.82945951     42.70148645      7.31415197
   Ti     28.17534163     32.30955263     43.15454081      1.69542714
    O     28.26803270     32.63810493     41.10481441      7.06829017
    O     28.20167748     30.93303671     44.60872111      7.61669250
   Ti     30.08079279     30.14072489     37.99873709      1.73418694
    O     34.10863240     34.06493570     40.15356588      7.15715041
   Ti     30.17018223     32.07301225     40.62052287      1.73345168
    O     30.32367575     32.09299173     38.54005349      7.12755345
   Ti     32.41849203     30.06251766     45.46833572      1.13444144
    O     30.13763269     31.89078518     42.71788698      7.13802117
   Ti     32.15597199     32.03163048     43.11555894      1.70544105
    O     32.15443998     31.92942593     41.03769433      7.12081007
    O     32.37561972     32.03514937     45.19031978      7.06021721
    O     32.16451061     29.98096395     43.48042202      6.99707496
   Ti     34.08595454     30.07750426     37.97973921      1.72480965
    O     38.07780767     34.06522902     40.25476246      7.16688409
   Ti     34.13625267     32.02462513     40.54592332      1.70728527
    O     34.14523400     32.06468865     38.46481173      7.12324472
    O     34.15580649     29.43816196     46.17471187      7.18409976
   Ti     35.86894945     30.08591515     45.42508219      1.13492341
    O     34.15525944     32.16555298     42.64734979      7.15172680
   Ti     36.17125674     32.03210081     43.05422432      1.69851382
    O     36.14011856     31.92606148     40.97302606      7.12619107
    O     36.11116397     32.04722504     45.15121462      7.06758989
    O     35.96188108     29.99343564     43.42507912      6.99144448
   Ti     38.10541878     30.01856958     38.08894116      1.71280606
    O     42.37817466     34.06507366     40.37279734      7.13451331
   Ti     38.14961306     31.99558076     40.57331678      1.70130526
    O     38.11144910     32.03368097     38.49934826      7.13030683
    O     38.19464420     32.00509209     42.65774546      7.13696816
   Ti     40.22566748     32.24746568     42.97852998      1.69591922
    O     40.18032242     32.05190630     40.92429542      7.06811903
    O     40.24639681     30.82227623     44.36295549      7.59551158
   Ti     42.08701750     30.27232672     38.18795603      1.40381365
   Ti     42.16546031     32.02374725     40.63959914      1.57859157
    O     42.69208356     32.13627198     38.60380150      7.05659169
    O     42.25693707     32.09010825     42.66100091      7.33670151
    O     26.97372308     38.06800219     40.11345055      6.49873722
   Ti     26.15137994     34.06555718     38.37718929      1.55539755
    O     29.88389858     38.00467018     40.08663140      7.13462275
   Ti     26.40849197     36.10074800     40.70443909      1.51875093
    O     25.66396699     36.04008073     38.76203638      7.04805131
    O     26.23592176     36.30263988     42.70297435      7.31454908
   Ti     28.17656082     35.81906760     43.15441535      1.69559929
    O     28.26778242     35.49503281     41.10403025      7.06815766
    O     28.12417629     34.06440411     44.07931109      7.21474976
   Ti     30.16141676     34.06539083     38.11240648      1.74654136
    O     33.93935054     38.12344103     40.06264808      7.17028549
   Ti     30.17146474     36.05605931     40.62087630      1.73311212
    O     30.32045095     36.03682494     38.53988604      7.12668470
    O     30.94604277     34.05016251     46.87287477      7.58253923
   Ti     32.40399741     34.05000799     45.53713615      1.68855320
    O     30.14174296     36.22314912     42.71913755      7.13915246
   Ti     32.15987292     36.09788591     43.12491648      1.70307702
    O     32.15534907     36.19155270     41.04595283      7.12181545
    O     32.36670734     36.06616603     45.19998646      7.05814653
    O     32.02442954     34.06227291     43.50993675      7.12095302
   Ti     34.13132708     34.06464541     38.05023952      1.73826259
    O     38.11191856     38.18606253     40.18226255      7.17534874
   Ti     34.13571548     36.10510080     40.54687107      1.70700965
    O     34.14575646     36.06684330     38.46511743      7.12353802
    O     34.20813013     34.05779183     46.40088940      7.24840969
   Ti     35.98493179     34.06342840     45.49461352      1.68446303
    O     34.15626931     35.96228188     42.64821049      7.14991577
   Ti     36.17056897     36.09684824     43.05354794      1.69922555
    O     36.14000518     36.20498573     40.97263300      7.12622711
    O     36.11098282     36.08324156     45.15169266      7.06786403
    O     36.22013687     34.06481752     43.44754647      7.12052354
   Ti     38.11326351     34.06573503     38.16925925      1.72029962
    O     42.35279506     38.10483120     40.19351627      7.33363453
   Ti     38.14989473     36.13476009     40.57370204      1.70130129
    O     38.11166280     36.09742928     38.49978980      7.12968707
    O     37.46667752     34.06465853     46.80941125      7.58869907
    O     38.19447832     36.12283970     42.65810235      7.13727284
   Ti     40.22569620     35.88235232     42.97867494      1.69606841
    O     40.18048033     36.07860081     40.92473283      7.06790760
    O     40.18355343     34.06487846     43.80200119      7.24055048
   Ti     42.13410561     34.06609594     38.30275734      1.61050202
   Ti     42.16561167     36.10637308     40.64039356      1.57851763
    O     42.69239439     35.99359002     38.60462014      7.05587786
    O     42.25712560     36.03960961     42.66183050      7.33672446
   Ti     26.27882638     37.85730082     38.18376212      1.37180463
    O     29.37224027     42.01538744     39.93165137      7.34676013
    O     27.52747735     39.30878521     40.71962119      6.70653785
    O     28.22141275     37.19705674     44.60673839      7.61609556
   Ti     30.08134425     37.98934322     37.99947855      1.73402558
    O     33.82140691     42.22277263     39.91813665      7.33980090
   Ti     29.54752726     39.99960102     40.39567070      1.67628356
    O     29.69734432     39.96700414     38.30128995      7.07595221
   Zr     32.30046197     38.15039363     45.62325159      1.13180391
    O     29.83782129     40.28553968     42.41306969      7.32165070
   Ti     31.81000152     39.85135586     42.48895154      1.38670295
    O     31.70326633     39.99356488     40.47282184      7.13838635
    O     32.13326597     38.15009845     43.48976728      6.99782736
   Ti     34.08608447     38.05140752     37.97968360      1.72564023
    O     37.90956676     42.28771081     40.00009483      7.34635356
   Ti     33.77429723     40.19593673     40.24101394      1.70920281
    O     33.97127685     40.10123896     38.18103814      7.07749585
    O     34.24692076     38.72603106     46.21716956      7.18244738
   Ti     35.92556131     38.04715059     45.42680891      1.13961428
    O     33.74948422     40.49005891     42.30835885      7.07789721
   Ti     35.69262874     39.91207337     42.55246160      1.41506564
    O     35.83177413     39.97865255     40.54403187      7.12181979
    O     35.96766888     38.13587874     43.42443176      6.99175236
   Ti     38.10559344     38.11142639     38.08934770      1.71293973
   Ti     37.91662354     40.26587358     40.46867371      1.75705642
    O     37.97207241     40.14408278     38.38470961      7.08073936
    O     37.55095026     40.66772727     42.47614435      7.33176505
    O     39.90655511     40.29981832     40.85577441      7.64899566
    O     40.24586320     37.30730169     44.36324325      7.59543283
   Ti     42.08712880     37.85775686     38.18811066      1.40354413
   Ti     30.02890592     41.91186927     38.00440224      1.39397569
   Ti     33.89202596     42.07566597     37.89771108      1.60594885
   Ti     37.71291512     42.08242760     37.99251911      1.39858071
