  271
Geometry Step: 129
    O     28.09117489     28.04580225     35.33773696      7.64647480
    O     34.16779115     30.81670987     29.29170634      7.59420222
    O     29.84968694     25.94496903     35.98396525      7.33086801
   Ti     31.85964320     26.06802683     35.55974202      1.57566108
    O     31.90532426     25.67041192     37.62522474      7.06459112
    O     30.76738572     27.97179262     31.78820309      7.59919045
   Ti     32.20949696     27.95517731     33.15953270      1.69472018
    O     32.12005352     28.02427657     35.21600457      7.06218501
    O     31.92568200     25.94475674     33.53190612      7.34352586
    O     33.87806140     25.70046786     35.84161171      7.13182815
   Ti     35.90784759     26.00996573     35.55297612      1.58053104
    O     35.82251582     25.51786761     37.59865287      7.05984496
    O     34.01345171     27.96363704     32.30918374      7.23715054
   Ti     35.80153541     27.95071971     33.19194852      1.69648329
    O     35.94415485     27.99184178     35.24630882      7.06717233
    O     35.87750121     25.91392053     33.52965296      7.34153921
    O     37.90555765     25.75014952     35.96794172      7.33644237
    O     37.27696649     27.87182396     31.86477869      7.59445460
    O     40.22496536     27.94462662     35.44750111      7.64358405
    O     29.65272371     34.06208329     29.82447208      7.18490458
    O     25.99737728     29.81163672     36.23650222      7.32975427
   Ti     27.94953134     30.05305358     35.59133653      1.76173077
    O     28.13892887     30.61881570     37.58589791      7.07776550
   Ti     28.16523156     32.21571988     33.41426435      1.43341938
    O     28.34124845     32.10898147     35.40413006      7.09441204
    O     27.44372466     30.35400276     33.60916516      7.31482289
    O     34.05992222     34.06309041     29.77312531      7.23780732
   Ti     30.14843588     32.31749528     30.61365878      1.13563934
    O     30.02858669     29.95495152     35.91376044      7.18105832
   Ti     32.06421706     30.05027328     35.52801066      1.71715320
    O     32.07588659     30.06886050     37.60284242      7.11891715
    O     29.99253398     32.17667156     32.60818489      6.99268674
   Ti     32.03106935     32.03219703     33.04162540      1.69041360
    O     32.09224902     32.03745711     30.95286610      7.06101367
    O     31.98094580     32.05879253     35.12211736      7.12596045
    O     32.03895564     30.00056728     33.44495032      7.14099198
    O     38.71415377     34.06044704     30.06344724      7.18493824
   Ti     34.10073949     32.27080971     30.64382269      1.68295101
    O     34.10551838     30.14915498     35.89640578      7.15872803
   Ti     36.15710729     30.02180868     35.56977872      1.70408617
    O     36.10579429     30.04087016     37.64648758      7.12491581
    O     34.07592415     32.04285794     32.69422536      7.12363875
   Ti     36.10847902     32.02699864     33.10335941      1.69025035
    O     36.11246373     32.16199895     31.01629822      7.06309103
    O     36.24110887     32.03992989     35.18071848      7.13418569
    O     36.07409055     29.98701307     33.48681440      7.14311831
   Ti     38.07833258     32.31582426     30.74504920      1.13636425
    O     38.18957932     29.90610481     35.98885983      7.16979466
   Ti     40.27474574     29.94858490     35.72553775      1.76177912
    O     40.14493017     30.03115765     37.81030985      7.08077834
    O     38.15917771     32.08084240     32.73530081      6.99108400
   Ti     39.95065180     32.14432390     33.60723653      1.42050640
    O     40.00629517     32.03434328     35.61772612      7.11146561
    O     40.63365932     30.25910623     33.70520187      7.32676655
    O     42.29523750     29.94798156     36.18948967      7.33953935
    O     25.95311390     34.07104907     36.35717804      7.34219679
   Ti     27.94784576     34.07015502     35.85122271      1.70894544
    O     28.11611161     34.08477900     37.92843018      7.07899871
   Ti     28.16009913     35.93105145     33.41147820      1.43210187
    O     28.34105034     36.03313434     35.40083439      7.09388475
    O     27.43333504     34.07242102     33.78565084      7.07116054
    O     34.16859727     37.30319382     29.29077110      7.59402410
   Ti     30.14641830     35.80711812     30.61441124      1.13518568
    O     30.06155741     34.07363216     36.04911252      7.18665978
   Ti     32.08558059     34.06194737     35.54321872      1.70776119
    O     32.14617386     34.03730455     37.61698034      7.12621061
    O     29.98929633     35.95554009     32.60854518      6.99318517
   Ti     32.02847622     36.09848109     33.04326354      1.68930090
    O     32.09004650     36.08906908     30.95435080      7.06098346
    O     31.98676849     36.07049116     35.12422181      7.12647170
    O     32.10393083     34.06503751     33.44033001      7.16140986
   Ti     34.09853294     35.85377446     30.64746439      1.68295105
    O     34.13116825     34.06357507     35.94346037      7.16541529
   Ti     36.18039189     34.06296470     35.58574180      1.70665200
    O     36.13469019     34.06341155     37.66581584      7.12106263
    O     34.07425547     36.08723331     32.69773786      7.12428354
   Ti     36.10766347     36.10024159     33.10582453      1.68972801
    O     36.11038693     35.95883552     31.01969781      7.06292740
    O     36.24482518     36.08330484     35.18285196      7.13327176
    O     36.07883838     34.06338669     33.50088023      7.15482338
   Ti     38.07585617     35.80401488     30.74609463      1.13607511
    O     38.20350795     34.05647253     36.06987256      7.17492084
   Ti     40.29153825     34.06461911     35.90654874      1.71881680
    O     40.16597809     34.06081775     37.97132659      7.07228789
    O     38.15858252     36.04588669     32.73558641      6.99140665
   Ti     39.95128375     35.98355640     33.60534665      1.42045218
    O     39.99539543     36.09094190     35.61616349      7.10857791
    O     40.59899694     34.06388240     33.82373313      7.07209820
    O     42.30866467     34.08150169     36.28062287      7.34127732
    O     26.00236214     38.33476558     36.25504437      7.32822176
   Ti     27.94983921     38.08139856     35.60329251      1.76286553
    O     28.14520200     37.48865358     37.59183991      7.07763490
    O     28.10018580     40.08921452     35.36464140      7.64645473
    O     27.44158923     37.79358771     33.61936589      7.31566875
    O     30.02961336     38.17208545     35.92220765      7.18025083
   Ti     32.06322582     38.07539382     35.53031930      1.71769454
    O     32.07628879     38.08882390     37.60510129      7.12047342
    O     30.75658001     40.17501476     31.80583165      7.59947912
   Ti     32.20535336     40.17737303     33.17046044      1.69495394
    O     32.12830234     40.10569456     35.22644204      7.06291572
    O     32.02825568     38.13088587     33.44771474      7.14117072
    O     34.10471480     37.96563423     35.89635297      7.15902745
   Ti     36.15678665     38.10174194     35.57378444      1.70416341
    O     36.10584942     38.07611455     37.65044687      7.12390833
    O     34.00772901     40.16316069     32.31723539      7.23730558
   Ti     35.79334875     40.17730173     33.20555454      1.69667117
    O     35.94144003     40.13146808     35.25945129      7.06647192
    O     36.07264379     38.14027331     33.49106786      7.14307728
    O     38.18882270     38.21359749     35.99501894      7.17089502
   Ti     40.27488705     38.17081119     35.73237371      1.76222753
    O     40.14365441     38.08475720     37.81757923      7.08056676
    O     37.27156074     40.27379682     31.88358171      7.59383019
    O     40.20834121     40.17458242     35.45457670      7.64428911
    O     40.63589820     37.86793596     33.71077109      7.32702074
    O     42.29385193     38.18919862     36.20071973      7.33977262
    O     29.84928805     42.19819339     35.98809599      7.33080221
   Ti     31.86040642     42.05981978     35.57625260      1.57664303
    O     31.89574874     42.42405453     37.64961279      7.06556134
    O     31.92808582     42.18779104     33.54847690      7.34415846
    O     33.87240657     42.45101391     35.86911710      7.13061770
   Ti     35.89594665     42.11392396     35.56899823      1.58141939
    O     35.82402521     42.58003386     37.62157564      7.06131822
    O     35.85030701     42.21423949     33.54650805      7.34180462
    O     37.89282301     42.39397214     35.97088340      7.33535234
    O     29.36892318     26.11924522     39.92536968      7.34671118
    O     33.80419586     25.90188578     39.91828706      7.33949680
    O     37.90037346     25.82940485     39.99029632      7.34718895
    O     26.95202563     30.06063914     40.11540117      6.49667211
    O     29.88146919     30.12795457     40.09329414      7.13525121
    O     27.51857715     28.82561834     40.72046974      6.70776506
   Ti     30.01424254     26.23220170     37.99479266      1.39282680
    O     33.93366936     30.00141332     40.06465706      7.17036973
   Ti     29.53930127     28.13331212     40.39971498      1.67445669
    O     29.67289069     28.17533403     38.30385877      7.07681666
    O     29.83160589     27.86444459     42.42184423      7.32321872
   Ti     31.80387429     28.29997879     42.49971113      1.38468102
    O     31.69202574     28.14141929     40.48301537      7.13701445
   Ti     33.88516978     26.04881985     37.89828613      1.60366356
    O     38.10848923     29.93142492     40.17396864      7.17548869
   Ti     33.75726060     27.92854940     40.24199464      1.70833859
    O     33.95934151     28.02445077     38.18323570      7.07826300
    O     33.73312553     27.63824237     42.30883282      7.07689569
   Ti     35.68303839     28.19511902     42.54635033      1.41582268
    O     35.82359143     28.13734574     40.53849126      7.12450103
   Ti     37.71775659     26.03440174     37.98054197      1.39654443
    O     42.36328958     30.03407875     40.17224541      7.33398727
   Ti     37.90996697     27.85102453     40.46095935      1.75611641
    O     37.98248075     27.97310770     38.37746724      7.08187032
    O     37.54186445     27.44090163     42.46649804      7.33255716
    O     39.89727043     27.81956884     40.86194912      7.64901723
    O     25.96142812     34.06893891     40.47414807      7.16276935
   Ti     26.27712318     30.28378135     38.18164727      1.37367557
    O     30.47287219     34.06543156     40.20554589      7.16138238
   Ti     26.39649452     32.02935622     40.70585183      1.51984594
    O     25.65892124     32.09926088     38.76152553      7.04855922
    O     26.21660214     31.84753730     42.70538692      7.31700234
   Ti     28.16412129     32.31853214     43.15590365      1.69359823
    O     28.25951142     32.62218918     41.10479549      7.06692892
    O     28.19709858     30.91309175     44.58021225      7.61467406
   Ti     30.08060291     30.14852369     38.00507993      1.73322665
    O     34.10519245     34.06028668     40.15812187      7.15774416
   Ti     30.16958066     32.07492099     40.63214682      1.73376959
    O     30.31345457     32.09951830     38.55129061      7.12689158
   Ti     32.44226376     30.07792371     45.46827272      1.13346801
    O     30.14075480     31.94641650     42.73258585      7.13727154
   Ti     32.15817445     32.05722855     43.12853715      1.70457560
    O     32.15610347     31.94700888     41.04969420      7.12284230
    O     32.33817236     32.05031191     45.20791278      7.06105305
    O     32.16631147     30.00436109     43.48199411      6.99887859
   Ti     34.08760031     30.07388150     37.98198292      1.72454172
    O     38.09982100     34.05165493     40.24015175      7.16482892
   Ti     34.13843781     32.01800236     40.55108275      1.70610489
    O     34.16609300     32.05901254     38.47025571      7.12306746
    O     34.18997392     29.50787839     46.19692228      7.18562888
   Ti     35.92086198     30.07002208     45.41858086      1.13476068
    O     34.16128358     32.13417164     42.65392024      7.15504042
   Ti     36.18420513     32.00537598     43.04246432      1.70225882
    O     36.14663351     31.91946097     40.96140437      7.12628693
    O     36.26542372     32.01396697     45.13186726      7.06455688
    O     35.94655222     29.97245535     43.41760731      6.99000396
   Ti     38.10775343     30.00705000     38.08161681      1.71267564
    O     42.34692696     34.07878529     40.38208266      7.13617986
   Ti     38.15676083     31.98361786     40.56059778      1.70118655
    O     38.10899975     32.02269903     38.48659831      7.13000864
    O     38.20520441     32.00504487     42.64415601      7.13549673
   Ti     40.23590929     32.24261973     42.96891543      1.69555682
    O     40.18785921     32.02965987     40.91607834      7.06940937
    O     40.25642509     30.81850777     44.35303327      7.59449868
   Ti     42.09018479     30.29999106     38.17120538      1.40462168
   Ti     42.17386250     32.03089549     40.63196436      1.57720846
    O     42.70644891     32.15855357     38.59934513      7.05515237
    O     42.26848520     32.08534748     42.65332224      7.33709388
    O     26.96117644     38.07642209     40.12881607      6.49616901
   Ti     26.15744140     34.07472556     38.38475213      1.55658927
    O     29.86845849     37.99363165     40.09803308      7.13584327
   Ti     26.41150850     36.10453062     40.71720297      1.51911932
    O     25.65924441     36.04486927     38.77705219      7.04789553
    O     26.23947253     36.29868699     42.71690905      7.31561479
   Ti     28.18295412     35.82816747     43.16903620      1.69492478
    O     28.27600673     35.51603891     41.11802239      7.06787541
    O     28.10298033     34.07029011     44.09038673      7.21733675
   Ti     30.16532410     34.07266381     38.12634301      1.74621563
    O     33.95257188     38.11587984     40.06201786      7.16538844
   Ti     30.18962233     36.05290966     40.64668656      1.73318270
    O     30.37890941     36.03679801     38.56470107      7.12730958
    O     31.08240278     34.19087717     46.89934351      7.57845537
   Ti     32.52515635     34.05903075     45.55829716      1.68838515
    O     30.16120031     36.18848692     42.74817534      7.14246280
   Ti     32.18702054     36.12023796     43.15652790      1.69865332
    O     32.17118353     36.19591986     41.07725145      7.11964073
    O     32.70758859     36.06297143     45.19142291      7.06690604
    O     32.07935851     34.08676547     43.54163642      7.11968791
   Ti     34.13368833     34.05806158     38.05412621      1.73842997
    O     38.10306463     38.17708880     40.18011863      7.17926252
   Ti     34.14274486     36.10187148     40.54198559      1.70843435
    O     34.13701541     36.06170057     38.45977233      7.12272929
    O     34.31821608     33.92915651     46.43989366      7.24793271
   Ti     36.06592153     34.02210675     45.48584097      1.68755200
    O     34.17681284     36.08711230     42.64672412      7.14156422
   Ti     36.18113638     36.06871598     43.04163652      1.70876469
    O     36.15127539     36.16376612     40.95794015      7.12933814
    O     36.15115374     36.04056151     45.13884618      7.06531786
    O     36.16756207     34.03632041     43.42916397      7.11906879
   Ti     38.11718171     34.05425174     38.15761410      1.72256058
    O     42.35152256     38.12244116     40.19069969      7.33512884
   Ti     38.16116910     36.11964342     40.55495370      1.70322811
    O     38.11369890     36.08710973     38.48424037      7.12859541
    O     37.60131806     34.06504108     46.74106461      7.59221514
    O     38.19503703     35.99807129     42.63240458      7.13753474
   Ti     40.22250086     35.89069272     42.99081984      1.69373490
    O     40.18618577     36.10913756     40.93541387      7.07020848
    O     40.21757740     34.06155574     43.79125960      7.24274930
   Ti     42.13407799     34.08397789     38.30675458      1.61114517
   Ti     42.17230184     36.12455337     40.65500801      1.57285661
    O     42.71249395     36.00261774     38.62264744      7.05456713
    O     42.24505981     36.10853231     42.68226368      7.33412225
   Ti     26.29123431     37.85481925     38.19570769      1.37628647
    O     29.36679106     42.00457048     39.93451020      7.34722609
    O     27.52481133     39.31039357     40.73860362      6.70696473
    O     28.22222755     37.23504351     44.59309141      7.61524443
   Ti     30.08254995     37.97656219     38.01139366      1.73432101
    O     33.81338870     42.20788450     39.94401803      7.33793551
   Ti     29.54800822     39.99075114     40.40811484      1.67714346
    O     29.66524276     39.94759792     38.31107312      7.07514916
   Zr     32.65247528     38.13947807     45.65565795      1.29126099
    O     29.83838382     40.26645557     42.42689558      7.32304272
   Ti     31.80735776     39.81844505     42.51299880      1.38094426
    O     31.69943619     39.97032524     40.49457553      7.13675173
    O     32.07278946     38.15382148     43.58993541      7.00041169
   Ti     34.08769482     38.04738500     37.98119607      1.72683104
    O     37.92405590     42.28689424     39.98473657      7.34558780
   Ti     33.76558344     40.18069576     40.25385413      1.70759019
    O     33.96907605     40.09685386     38.19160033      7.08026931
    O     34.58162709     38.85852845     46.15175321      7.18596989
   Zr     36.45559896     38.11360684     45.51784850      1.13733495
    O     33.76498607     40.40464339     42.32840803      7.07655031
   Ti     35.71923781     39.85245873     42.53170656      1.41519657
    O     35.84032104     39.96002841     40.52497272      7.12833200
    O     36.23439452     38.12105744     43.38986534      6.99692040
   Ti     38.10694394     38.10377155     38.08732224      1.71334328
   Ti     37.92334285     40.26631324     40.45840820      1.75530302
    O     38.00640522     40.13920839     38.37698143      7.07940197
    O     37.52760770     40.71905406     42.45115958      7.33355468
    O     39.90356718     40.28210708     40.88508411      7.64682544
    O     40.02731003     37.29695222     44.38981665      7.59446683
   Ti     42.09156377     37.85745007     38.18717798      1.40446413
   Ti     29.99427575     41.88918797     37.99781389      1.39498350
   Ti     33.88089030     42.07242403     37.92219841      1.60211071
   Ti     37.72611346     42.07362455     37.97934227      1.39961184
    H     30.81975856     38.16316361     47.01265605      0.91610207
    H     31.36536500     38.28100983     47.54855573      0.91493101
