  269
Geometry Step: 33
    O     28.09030862     28.04028602     35.32345639      7.64637400
    O     34.15300502     30.82086695     29.29030433      7.59414833
    O     29.85454905     25.94481092     35.99271422      7.33119006
   Ti     31.86376359     26.06702959     35.56197367      1.57483612
    O     31.91598279     25.65312151     37.62626337      7.06448248
    O     30.76652664     27.96668048     31.78945699      7.59903443
   Ti     32.21019001     27.95207713     33.15909846      1.69450026
    O     32.11726443     28.02344696     35.21467984      7.06177908
    O     31.92924053     25.94157855     33.53509108      7.34310972
    O     33.88471280     25.71020713     35.84105435      7.13282763
   Ti     35.91617186     26.01229247     35.55610381      1.58002936
    O     35.82504727     25.50709071     37.59885770      7.05958250
    O     34.01689378     27.95913092     32.31432389      7.23744874
   Ti     35.80580056     27.95206403     33.19557254      1.69626066
    O     35.95101664     27.99456222     35.25006032      7.06771069
    O     35.88556824     25.91538520     33.53338020      7.34107527
    O     37.91334948     25.76187101     35.97988225      7.33639717
    O     37.27883561     27.87395375     31.86573611      7.59443892
    O     40.21866160     27.94985309     35.44622843      7.64395720
    O     29.61947616     34.06503372     29.84281018      7.18469462
    O     25.99685792     29.80138081     36.23878908      7.33012456
   Ti     27.94700290     30.04570548     35.58803676      1.76177829
    O     28.13940323     30.61139454     37.58215974      7.07731672
   Ti     28.16353767     32.20623396     33.41019305      1.43333296
    O     28.33362499     32.10135458     35.40066147      7.09434532
    O     27.43659113     30.34682990     33.60652829      7.31528797
    O     34.09334827     34.06477560     29.77048130      7.23751850
   Ti     30.14534408     32.32105258     30.61356947      1.13556751
    O     30.02708563     29.95327416     35.90782526      7.18089311
   Ti     32.06303942     30.04986218     35.52219476      1.71673584
    O     32.07548722     30.05988680     37.59668589      7.11865440
    O     29.99176983     32.15855854     32.60663550      6.99276616
   Ti     32.03205670     32.03185470     33.03744325      1.69043581
    O     32.09362085     32.07009032     30.94946564      7.06087919
    O     31.98538469     32.05910484     35.11788925      7.12618040
    O     32.04315491     29.99918039     33.43899516      7.14148188
    O     38.69206214     34.06468461     30.04642178      7.18500089
   Ti     34.10561199     32.27381656     30.64428106      1.68330924
    O     34.10485323     30.15091573     35.89292397      7.15954279
   Ti     36.15755400     30.02585075     35.57194288      1.70415132
    O     36.10426975     30.05925105     37.64827513      7.12469805
    O     34.07761998     32.04611501     32.69458897      7.12379514
   Ti     36.11027583     32.02809567     33.10487631      1.69041822
    O     36.11522964     32.13707421     31.01707049      7.06254694
    O     36.24576384     32.04371527     35.18198101      7.13420985
    O     36.07545300     29.98879425     33.48910373      7.14265338
   Ti     38.07853067     32.31877075     30.74509390      1.13617662
    O     38.18911450     29.91012354     35.99506478      7.17057247
   Ti     40.27464834     29.95292470     35.73207828      1.76147068
    O     40.14147535     30.02660814     37.81719662      7.07967577
    O     38.16069686     32.09473605     32.73660771      6.99108888
   Ti     39.95092745     32.14709794     33.61136167      1.42131037
    O     39.99648444     32.03725178     35.62197228      7.11112567
    O     40.63342447     30.26201981     33.71117425      7.32674282
    O     42.29376891     29.94514491     36.20084502      7.34023187
    O     25.94980908     34.06510416     36.34975533      7.34224836
   Ti     27.94481451     34.06404637     35.84540007      1.70869028
    O     28.11077748     34.06468618     37.92238301      7.07976753
   Ti     28.16364214     35.92364579     33.40981325      1.43341696
    O     28.33287481     36.03058996     35.40021397      7.09448177
    O     27.43615467     34.06503328     33.77899910      7.07045750
    O     34.15315827     37.30861851     29.28935438      7.59415874
   Ti     30.14534757     35.80915171     30.61322474      1.13558238
    O     30.05896907     34.06638477     36.03665668      7.18615816
   Ti     32.08497071     34.06352638     35.53675096      1.70740291
    O     32.14352216     34.06557810     37.61052269      7.12559245
    O     29.99191342     35.97135532     32.60631978      6.99276454
   Ti     32.03225170     36.09794053     33.03684943      1.69050419
    O     32.09367780     36.06009925     30.94888634      7.06086666
    O     31.98630298     36.07178373     35.11733653      7.12616898
    O     32.09803123     34.06499244     33.43429276      7.16090746
   Ti     34.10564664     35.85600611     30.64369834      1.68331206
    O     34.13034480     34.06481824     35.94063672      7.16564502
   Ti     36.17992800     34.06684342     35.58602418      1.70615386
    O     36.13249032     34.06672638     37.66656367      7.12111709
    O     34.07778437     36.08385485     32.69396447      7.12377268
   Ti     36.11045480     36.10171987     33.10418174      1.69044757
    O     36.11528565     35.99268526     31.01643133      7.06251848
    O     36.24526057     36.08682392     35.18140849      7.13321661
    O     36.07622429     34.06501145     33.50020698      7.15537795
   Ti     38.07856365     35.81087558     30.74440463      1.13619826
    O     38.20095227     34.06562897     36.07875539      7.17486824
   Ti     40.28727061     34.06681827     35.91197426      1.71883190
    O     40.16415040     34.06600334     37.97745762      7.07322245
    O     38.16090061     36.03524256     32.73587564      6.99108352
   Ti     39.95170806     35.98328684     33.60947468      1.42095942
    O     39.99748412     36.09412562     35.62026660      7.10877128
    O     40.60136874     34.06514621     33.83006891      7.07171736
    O     42.30632989     34.06593558     36.27791603      7.34042166
    O     25.99664212     38.32586880     36.23694570      7.33024141
   Ti     27.94743713     38.08213237     35.58768224      1.76315408
    O     28.13933774     37.51955622     37.58286565      7.07762417
    O     28.09163099     40.08622804     35.32249962      7.64604129
    O     27.43658124     37.78310939     33.60537618      7.31579920
    O     30.02771433     38.17494714     35.90787525      7.18118498
   Ti     32.06350376     38.07691628     35.52176366      1.71689052
    O     32.07608068     38.06933874     37.59644458      7.11896848
    O     30.76581227     40.16273149     31.78896321      7.59905349
   Ti     32.21023189     40.17743640     33.15779872      1.69471153
    O     32.11696603     40.10704923     35.21326567      7.06349849
    O     32.04319714     38.13056599     33.43849536      7.14153954
    O     34.10545210     37.97812922     35.89247210      7.15969008
   Ti     36.15801815     38.10543814     35.57099729      1.70446166
    O     36.10498556     38.07107822     37.64740550      7.12455647
    O     34.01717576     40.17043692     32.31358513      7.23745830
   Ti     35.80632656     40.17745609     33.19427597      1.69631761
    O     35.95210217     40.13450509     35.24882209      7.06727086
    O     36.07611954     38.14093738     33.48805587      7.14261010
    O     38.18954702     38.21861573     35.99516034      7.17100250
   Ti     40.27523048     38.17455871     35.73167417      1.76228732
    O     40.14187000     38.10311029     37.81717163      7.07988107
    O     37.27912212     40.25549832     31.86418359      7.59446026
    O     40.21884405     40.17718036     35.44548255      7.64413245
    O     40.63407165     37.86841888     33.70999749      7.32704951
    O     42.29428148     38.18313306     36.20092573      7.34029783
    O     29.85532571     42.18719140     35.98758093      7.33095881
   Ti     31.86476606     42.06420911     35.55802548      1.57507914
    O     31.91662622     42.47485087     37.62278226      7.06475071
    O     31.93003593     42.18842911     33.53126931      7.34302133
    O     33.88604605     42.42081726     35.83626737      7.13260373
   Ti     35.91788098     42.11800956     35.55366825      1.57962775
    O     35.82637728     42.62233937     37.59592103      7.05945229
    O     35.88708347     42.21417018     33.53083070      7.34107229
    O     37.91499827     42.36820530     35.97762326      7.33627335
    O     29.37539643     26.11568147     39.93442921      7.34701099
    O     33.81836012     25.90672344     39.91987002      7.34042085
    O     37.90985698     25.84113938     39.99850968      7.34633595
    O     26.97669131     30.06226312     40.11325869      6.49877954
    O     29.88038279     30.12612192     40.08547384      7.13453781
    O     27.52844411     28.82159727     40.72176635      6.70719769
   Ti     30.02722338     26.21702527     38.00507423      1.39236493
    O     33.94152208     30.00583227     40.06175861      7.16998029
   Ti     29.55101934     28.13106189     40.40123982      1.67601956
    O     29.69799007     28.16367217     38.30501478      7.07759503
    O     29.83819533     27.84945437     42.42052076      7.32245661
   Ti     31.81341457     28.26704046     42.50701809      1.38562210
    O     31.70332194     28.13909235     40.48963279      7.13632122
   Ti     33.89163114     26.05161825     37.89937756      1.60467460
    O     38.11188820     29.94275682     40.18030944      7.17529347
   Ti     33.77129237     27.93410290     40.24585528      1.70854850
    O     33.96908579     28.02722649     38.18550631      7.07880696
    O     33.75034890     27.62962998     42.31275366      7.07741686
   Ti     35.69267065     28.20486171     42.55665638      1.41595861
    O     35.83041240     28.14715887     40.54747735      7.12259850
   Ti     37.71297128     26.04442537     37.99100002      1.39752720
    O     42.35376328     30.02546776     40.19314898      7.33362812
   Ti     37.91623473     27.86298869     40.46724160      1.75639643
    O     37.97236653     27.98494927     38.38283810      7.08206590
    O     37.55179455     27.45369475     42.47361436      7.33170674
    O     39.90657087     27.83033370     40.85503729      7.64924848
    O     25.95497694     34.06502326     40.46803975      7.16351005
   Ti     26.28019654     30.27262829     38.18409922      1.37202206
    O     30.48050628     34.06580588     40.19016862      7.16430755
   Ti     26.40937313     32.02906948     40.70330682      1.51920303
    O     25.66326407     32.08904589     38.76157631      7.04864230
    O     26.23427720     31.82822205     42.70124247      7.31435087
   Ti     28.17489814     32.31003419     43.15416048      1.69512076
    O     28.26741133     32.63828207     41.10428276      7.06841697
    O     28.20238606     30.93344927     44.60821908      7.61659795
   Ti     30.08071444     30.14113426     37.99894820      1.73410282
    O     34.10464707     34.06579580     40.15625987      7.15770536
   Ti     30.16987260     32.07406282     40.61997316      1.73312672
    O     30.32348177     32.09354526     38.53966059      7.12729264
   Ti     32.41653065     30.05976166     45.46301056      1.13418035
    O     30.13835882     31.89686944     42.71755673      7.13762341
   Ti     32.15639143     32.03319555     43.11512688      1.70596902
    O     32.15515534     31.93533199     41.03747480      7.12138181
    O     32.37177615     32.03269718     45.18994808      7.06039601
    O     32.16557696     29.98154324     43.47414251      6.99767102
   Ti     34.08557214     30.07761193     37.97931453      1.72472348
    O     38.07896298     34.06402912     40.25357212      7.16715244
   Ti     34.13735187     32.02436201     40.54486933      1.70719486
    O     34.14530679     32.06489089     38.46401228      7.12296484
    O     34.15374682     29.43612278     46.17242861      7.18542559
   Ti     35.87060374     30.07729630     45.42193403      1.13290235
    O     34.15658978     32.15674593     42.64681922      7.15216645
   Ti     36.17293222     32.02740318     43.05166458      1.70066104
    O     36.14140258     31.92172471     40.97048705      7.12648498
    O     36.12227974     32.03628883     45.13824313      7.06199226
    O     35.95951760     29.98637886     43.42099684      6.99350384
   Ti     38.10536706     30.01793982     38.08780793      1.71275334
    O     42.37918195     34.06530570     40.37269400      7.13458097
   Ti     38.15072638     31.99421306     40.57223381      1.70165280
    O     38.11121967     32.03301254     38.49869861      7.13031593
    O     38.19577148     31.99920282     42.65667340      7.13638445
   Ti     40.22591559     32.24621450     42.97734630      1.69608144
    O     40.18064775     32.05228736     40.92279711      7.06766377
    O     40.24836131     30.82222835     44.36307113      7.59564960
   Ti     42.08713232     30.27220714     38.18784332      1.40373023
   Ti     42.16548771     32.02401449     40.63910101      1.57899290
    O     42.69183327     32.13630922     38.60352110      7.05647047
    O     42.25699690     32.08987099     42.66038100      7.33648882
    O     26.97079915     38.06838882     40.11290525      6.49831731
   Ti     26.15188887     34.06548378     38.37766416      1.55558499
    O     29.87956797     38.00421801     40.08633459      7.13544589
   Ti     26.40786487     36.10120851     40.70551392      1.51861211
    O     25.66335772     36.03952575     38.76289574      7.04806677
    O     26.23618960     36.30617890     42.70423238      7.31437656
   Ti     28.17549686     35.81999782     43.15644082      1.69560873
    O     28.26793163     35.49787031     41.10537760      7.06863006
    O     28.12160710     34.06442647     44.07998069      7.21499752
   Ti     30.16155355     34.06606170     38.11339244      1.74662785
    O     33.94578261     38.12477734     40.06249759      7.17034925
   Ti     30.17255955     36.05641095     40.62215362      1.73297746
    O     30.32361071     36.03698726     38.54125240      7.12651775
    O     30.94576900     34.04177880     46.87377763      7.58275431
   Ti     32.40577611     34.04800354     45.54004882      1.68750412
    O     30.14208463     36.21446619     42.72074598      7.13966064
   Ti     32.16059466     36.09971659     43.12981480      1.70274464
    O     32.15608916     36.20101338     41.05003410      7.12249480
    O     32.36808920     36.06584360     45.20535664      7.05862797
    O     32.03256155     34.06319868     43.51204511      7.12014196
   Ti     34.13081314     34.06528161     38.05194176      1.73785036
    O     38.10824607     38.18577205     40.18112083      7.17586640
   Ti     34.13635025     36.10632804     40.55114203      1.70612665
    O     34.14360894     36.06693549     38.46888452      7.12355066
    O     34.21415738     34.04984068     46.39545222      7.24790737
   Ti     35.99015852     34.04768317     45.48874576      1.68795038
    O     34.15739802     35.98593500     42.65486643      7.14817640
   Ti     36.17012345     36.10427462     43.06514421      1.69946442
    O     36.13957475     36.19827663     40.98224159      7.12697717
    O     36.13480028     36.06389886     45.15382069      7.06198711
    O     36.20980653     34.06317684     43.43827090      7.12530116
   Ti     38.11312227     34.06530928     38.16793343      1.72009093
    O     42.35424608     38.10432603     40.19372689      7.33362622
   Ti     38.14712754     36.13362111     40.57446529      1.70123279
    O     38.11104180     36.09672639     38.50043773      7.12981104
    O     37.46737759     34.04629133     46.81019060      7.59018899
    O     38.19282673     36.11463914     42.65872659      7.13818103
   Ti     40.22399462     35.88147436     42.97798920      1.69665263
    O     40.17791361     36.08028642     40.92406231      7.06786493
    O     40.18368314     34.06359959     43.80049676      7.24052293
   Ti     42.13425906     34.06612019     38.30242542      1.61035071
   Ti     42.16301337     36.10627760     40.64001414      1.57884299
    O     42.69180349     35.99363489     38.60492296      7.05583067
    O     42.25475539     36.04099543     42.66146824      7.33632239
   Ti     26.27903271     37.85584572     38.18275148      1.37217597
    O     29.37033478     42.01556146     39.92559242      7.34684200
    O     27.52405887     39.30888434     40.71960342      6.70629696
    O     28.23113443     37.19828520     44.60834470      7.61586333
   Ti     30.08135518     37.98834284     37.99916025      1.73405766
    O     33.81728746     42.22250226     39.91370155      7.33916787
   Ti     29.54301448     40.00016249     40.39314076      1.67628588
    O     29.69207053     39.96507162     38.29848875      7.07587101
   Zr     32.24011389     38.14537002     45.63661643      1.13340638
    O     29.83477045     40.29084236     42.41022997      7.32230727
   Ti     31.80569536     39.84937282     42.48743673      1.38548829
    O     31.69642423     39.99072921     40.47056542      7.13616287
    O     32.10942919     38.15099898     43.49923325      6.99874544
   Ti     34.08653786     38.05040657     37.97901892      1.72531404
    O     37.91465634     42.29033377     39.99461441      7.34596219
   Ti     33.76331712     40.19611983     40.23234948      1.70743180
    O     33.96699448     40.10117881     38.17338073      7.07786163
    O     34.16002658     38.76403385     46.26545114      7.18042266
   Zr     36.06095325     38.14815758     45.57928303      1.13460605
    O     33.74874481     40.47630038     42.30080102      7.07665033
   Ti     35.69288239     39.89811861     42.52671374      1.41736151
    O     35.83414470     39.97963438     40.52028374      7.12748737
    O     36.00926676     38.14887486     43.44017348      6.99466511
   Ti     38.10568503     38.11071590     38.08824876      1.71271015
   Ti     37.92148965     40.26797165     40.46073629      1.75714684
    O     37.97866309     40.14507553     38.37777003      7.08058218
    O     37.54189020     40.67598398     42.46366946      7.33101798
    O     39.90944533     40.30000672     40.85707183      7.64837636
    O     40.23116039     37.30699321     44.36211203      7.59515854
   Ti     42.08746877     37.85801810     38.18828042      1.40346883
   Ti     30.02777486     41.90879203     37.99881649      1.39405290
   Ti     33.89281579     42.07654831     37.89330650      1.60560403
   Ti     37.71410477     42.08349827     37.98818819      1.39893727
