  269
Geometry Step: 146
    O     28.05924306     28.02167533     35.32743538      7.64427006
    O     34.12943563     30.81446474     29.29019362      7.59381510
    O     29.87031904     25.96681124     36.03059029      7.33060037
   Ti     31.87599788     26.06344197     35.56834836      1.57208999
    O     31.95750365     25.57636040     37.61592512      7.06316284
    O     30.76915000     27.96616978     31.79587913      7.59828946
   Ti     32.21299152     27.94767965     33.16482112      1.69346360
    O     32.10163994     28.02381716     35.21868133      7.06256885
    O     31.93615066     25.93563574     33.54295127      7.34225491
    O     33.90934151     25.76720168     35.82811216      7.13521386
   Ti     35.94839272     26.01578499     35.54950839      1.57881013
    O     35.84089692     25.49379202     37.58699898      7.05684405
    O     34.02221665     27.93769635     32.32349472      7.23877536
   Ti     35.82022435     27.95199464     33.18706166      1.69585667
    O     35.98380786     27.99640127     35.23963836      7.06738696
    O     35.92160127     25.91628893     33.52679724      7.34102938
    O     37.94474455     25.77841029     35.98927391      7.33689331
    O     37.28343466     27.88868543     31.84572681      7.59426724
    O     40.22648111     27.95270634     35.44834694      7.64370680
    O     29.58545713     34.06512837     29.86648171      7.18453038
    O     25.97902717     29.82698245     36.22860042      7.33350520
   Ti     27.94140628     30.02547555     35.59529512      1.76264033
    O     28.13140016     30.51911381     37.60472309      7.07568143
   Ti     28.17579740     32.19937078     33.44211868      1.43317691
    O     28.30262595     32.09036124     35.43741175      7.09731865
    O     27.45640869     30.33437419     33.60727523      7.31644679
    O     34.10653257     34.06477178     29.75495620      7.23886529
   Ti     30.13423815     32.32435440     30.62827524      1.13534871
    O     30.02593409     29.94491618     35.90919594      7.18308243
   Ti     32.06295948     30.05104293     35.51943455      1.71632409
    O     32.08344831     30.11129751     37.59127277      7.11623954
    O     29.99556273     32.14732202     32.62138401      6.99218329
   Ti     32.03835860     32.03277946     33.03746124      1.69111928
    O     32.08819637     32.10048369     30.95037909      7.06120881
    O     31.97805271     32.05974722     35.11703260      7.12549733
    O     32.06341716     29.99846478     33.43691401      7.14228345
    O     38.66223417     34.06521778     29.99800161      7.18526429
   Ti     34.10205458     32.27593011     30.63547155      1.68251354
    O     34.10861199     30.13401494     35.88618098      7.16104854
   Ti     36.16264499     30.02764330     35.56672466      1.70476556
    O     36.10842366     30.04755451     37.64318324      7.12403608
    O     34.08190782     32.04585380     32.68496630      7.12300767
   Ti     36.11383107     32.02863866     33.09728950      1.68853853
    O     36.11318582     32.12452617     30.99925142      7.06680913
    O     36.25069670     32.04463135     35.17415513      7.13321063
    O     36.07329559     29.99034078     33.48402503      7.14263967
   Ti     38.07537423     32.32285217     30.72849860      1.13597431
    O     38.19307303     29.91149991     35.99628807      7.17108535
   Ti     40.27646009     29.95646309     35.72687228      1.76117444
    O     40.14308975     30.03886912     37.81820205      7.08192037
    O     38.16135984     32.10649969     32.72094848      6.99040236
   Ti     39.94775782     32.14805834     33.60464843      1.42100948
    O     39.98934391     32.03890795     35.61547919      7.11075125
    O     40.62650171     30.26155020     33.70469095      7.32587227
    O     42.29477692     29.95067026     36.19508235      7.33904777
    O     25.93537729     34.06535197     36.35285205      7.34233512
   Ti     27.93278844     34.06532407     35.85847893      1.70805981
    O     28.09872044     34.06634849     37.93291712      7.08147387
   Ti     28.17582158     35.93096937     33.44076704      1.43299352
    O     28.30303611     36.04243782     35.43578307      7.09648542
    O     27.45384734     34.06532610     33.78584891      7.07046805
    O     34.12940245     37.31606768     29.28985251      7.59385743
   Ti     30.13461844     35.80617523     30.62777302      1.13529709
    O     30.04805667     34.06593690     36.03489494      7.18559651
   Ti     32.07694257     34.06343054     35.53903399      1.70625256
    O     32.13564979     34.06475818     37.61313965      7.12284819
    O     29.99593693     35.98359366     32.62088965      6.99216907
   Ti     32.03863234     36.09730031     33.03721108      1.69122939
    O     32.08847210     36.02958017     30.95003337      7.06109863
    O     31.97846719     36.07111875     35.11681195      7.12531419
    O     32.10122810     34.06527499     33.43583793      7.16096102
   Ti     34.10200073     35.85403328     30.63462173      1.68254337
    O     34.12366750     34.06512611     35.93656440      7.16463065
   Ti     36.17275236     34.06719848     35.57968459      1.70530008
    O     36.12912980     34.06650584     37.66105337      7.12294847
    O     34.08194999     36.08425380     32.68418792      7.12295659
   Ti     36.11372802     36.10116769     33.09649317      1.68871240
    O     36.11293288     36.00550934     30.99880308      7.06646972
    O     36.24915969     36.08619212     35.17360643      7.13169577
    O     36.07288187     34.06510668     33.49298100      7.15523568
   Ti     38.07495373     35.80754292     30.72838276      1.13622405
    O     38.19323076     34.06598929     36.07870734      7.17678578
   Ti     40.27974748     34.06742002     35.90939683      1.71924393
    O     40.15622090     34.06695684     37.97483159      7.07243493
    O     38.16142380     36.02326775     32.72070809      6.99037100
   Ti     39.94857735     35.98219340     33.60305417      1.42064080
    O     39.99052511     36.09333063     35.61372525      7.10787713
    O     40.59907784     34.06503858     33.82785013      7.07191300
    O     42.29883327     34.06572255     36.27718115      7.34115377
    O     25.97837750     38.30116523     36.22861344      7.33335307
   Ti     27.94146717     38.10206119     35.59643266      1.76359848
    O     28.13163052     37.61020067     37.60605418      7.07577666
    O     28.05959982     40.10614900     35.32748855      7.64496505
    O     27.45687706     37.79631430     33.60753008      7.31708345
    O     30.02595183     38.18498812     35.91078463      7.18281545
   Ti     32.06237362     38.07535907     35.51976089      1.71655710
    O     32.08381310     38.02049091     37.59140734      7.11638251
    O     30.76874979     40.16332981     31.79681886      7.59831345
   Ti     32.21308579     40.18237070     33.16523632      1.69370332
    O     32.10134357     40.10644802     35.21938543      7.06450239
    O     32.06354191     38.13184278     33.43630606      7.14270324
    O     34.10805198     37.99464915     35.88711328      7.16140447
   Ti     36.16206388     38.10305963     35.56611174      1.70517378
    O     36.10847748     38.08346049     37.64305190      7.12425089
    O     34.02208022     40.19169891     32.32353770      7.23874910
   Ti     35.82033298     40.17764616     33.18653525      1.69589379
    O     35.98448709     40.13195373     35.23928140      7.06708268
    O     36.07380563     38.13928810     33.48326118      7.14270009
    O     38.19262662     38.21757241     35.99717549      7.17123291
   Ti     40.27633147     38.17142227     35.72682283      1.76209963
    O     40.14357811     38.09055521     37.81865306      7.08220474
    O     37.28259995     40.24028854     31.84424009      7.59422016
    O     40.22605993     40.17475509     35.44867368      7.64386272
    O     40.62580783     37.86926887     33.70396111      7.32617458
    O     42.29475670     38.17828816     36.19530273      7.33899113
    O     29.87027221     42.16477330     36.03102789      7.33074974
   Ti     31.87611817     42.06692250     35.56883302      1.57194458
    O     31.95802552     42.55087368     37.61735616      7.06340772
    O     31.93665062     42.19405783     33.54347883      7.34211005
    O     33.91014951     42.36307607     35.82809189      7.13550896
   Ti     35.94899397     42.11366647     35.54989140      1.57860012
    O     35.84116356     42.63342802     37.58813196      7.05706004
    O     35.92183963     42.21289921     33.52718860      7.34087459
    O     37.94435703     42.35166448     35.98910551      7.33640376
    O     29.36988833     26.10872662     39.94784442      7.34625256
    O     33.85277569     25.91081640     39.91610084      7.34078716
    O     37.90738068     25.84187029     40.00734886      7.34539463
    O     26.95056479     30.05183026     40.12185636      6.50075557
    O     29.89871973     30.11812610     40.09062007      7.13590666
    O     27.53443564     28.81896142     40.72034720      6.71057461
   Ti     30.09008298     26.18466952     38.04241641      1.39311788
    O     33.93331759     30.00714652     40.05624894      7.17004378
   Ti     29.55873318     28.12449121     40.40876273      1.67461172
    O     29.79613289     28.13973044     38.32273974      7.07829324
    O     29.83778894     27.85333888     42.42966111      7.32245784
   Ti     31.81600668     28.26338897     42.51881252      1.38393616
    O     31.70927521     28.12008774     40.50310477      7.13413763
   Ti     33.91474077     26.05582726     37.89327662      1.60799671
    O     38.10995301     29.94413075     40.18447038      7.17705035
   Ti     33.77270609     27.93461704     40.24632969      1.70956111
    O     33.94309905     28.03208480     38.18360759      7.07721358
    O     33.75503663     27.63012387     42.31565671      7.07839162
   Ti     35.69229080     28.21995606     42.55713766      1.41958362
    O     35.83076352     28.16930024     40.54899654      7.12231657
   Ti     37.72069451     26.04512273     37.99951172      1.39839333
    O     42.35084288     30.02332058     40.18527165      7.33420136
   Ti     37.91351679     27.86339251     40.47509761      1.75682042
    O     37.97532232     27.98587324     38.39131408      7.08152501
    O     37.54061832     27.44508395     42.47822757      7.33082028
    O     39.89871577     27.83405019     40.88511303      7.64855997
    O     25.94486729     34.06495446     40.47032660      7.16479303
   Ti     26.25531632     30.25733351     38.18738683      1.36676423
    O     30.47775882     34.06545317     40.18473716      7.16576245
   Ti     26.40555712     32.02733585     40.70385063      1.51851995
    O     25.66734863     32.08433036     38.76008926      7.04813450
    O     26.23475914     31.82198953     42.70257065      7.31439837
   Ti     28.17298737     32.31050080     43.15375025      1.69548013
    O     28.26188153     32.64040603     41.10333828      7.06772035
    O     28.20294019     30.95187343     44.62499761      7.61720046
   Ti     30.09170350     30.12872131     38.00269387      1.73422854
    O     34.09274211     34.06499280     40.15194886      7.15798434
   Ti     30.16246727     32.07311767     40.61675621      1.73239139
    O     30.26194737     32.09093759     38.53416423      7.12601808
   Ti     32.40473990     30.07376935     45.46556737      1.13475099
    O     30.13297340     31.88764811     42.71351949      7.13724378
   Ti     32.15069813     32.03494951     43.10899029      1.70546129
    O     32.15040991     31.94383187     41.03030991      7.12269554
    O     32.37543168     32.04623440     45.18346177      7.06106432
    O     32.16005093     29.98448969     43.47666304      6.99731351
   Ti     34.09149290     30.07853679     37.97486531      1.72568271
    O     38.07679584     34.06517192     40.25566018      7.16652065
   Ti     34.13522164     32.02434320     40.54168719      1.70697975
    O     34.17399348     32.06563426     38.46118056      7.12355606
    O     34.13796982     29.43929914     46.17326139      7.18450763
   Ti     35.85484892     30.08561029     45.42898631      1.13476576
    O     34.15098556     32.15433581     42.64335003      7.15137787
   Ti     36.16662804     32.03371978     43.05646404      1.69770039
    O     36.13817238     31.92340383     40.97515917      7.12622664
    O     36.08232694     32.04793008     45.15500668      7.06798926
    O     35.97609464     29.99373495     43.43030054      6.99129612
   Ti     38.10830494     30.01814263     38.09037152      1.71188073
    O     42.34717987     34.06512766     40.37395438      7.13448941
   Ti     38.14721697     31.99601594     40.57565209      1.70191155
    O     38.10690604     32.03344362     38.50136455      7.13071131
    O     38.19029439     32.02103826     42.66006942      7.13716709
   Ti     40.22387931     32.24573813     42.97876920      1.69611622
    O     40.17691208     32.03665912     40.92681813      7.06725225
    O     40.24117373     30.82024997     44.36158698      7.59442884
   Ti     42.09064559     30.28215186     38.18097378      1.40493810
   Ti     42.16143959     32.02138929     40.63855726      1.57806439
    O     42.70010965     32.14177168     38.60642129      7.05518606
    O     42.25576057     32.09032504     42.65894866      7.33669457
    O     26.94948341     38.07964894     40.12308616      6.50131327
   Ti     26.13882537     34.06580464     38.38101033      1.55551408
    O     29.89849681     38.01238569     40.09131477      7.13540277
   Ti     26.40527385     36.10284008     40.70426934      1.51819468
    O     25.66697476     36.04500778     38.76026966      7.04748251
    O     26.23405970     36.30753178     42.70325752      7.31453324
   Ti     28.17280488     35.82016864     43.15378168      1.69554653
    O     28.26187756     35.49108862     41.10328824      7.06755137
    O     28.12586905     34.06540285     44.07822107      7.21455134
   Ti     30.15381721     34.06588812     38.11071838      1.74799543
    O     33.93371373     38.12259640     40.05734674      7.16974595
   Ti     30.16259372     36.05806646     40.61699604      1.73253570
    O     30.26419913     36.04040904     38.53448682      7.12563107
    O     30.89317717     34.06473458     46.82515685      7.58075834
   Ti     32.38442985     34.06303823     45.52848967      1.68547799
    O     30.13311063     36.24214670     42.71383428      7.13734101
   Ti     32.15095904     36.09496502     43.10920459      1.70553949
    O     32.15043566     36.18716763     41.03059326      7.12263387
    O     32.37501139     36.08459012     45.18349433      7.06220043
    O     32.01234165     34.06490586     43.50315683      7.11622003
   Ti     34.12634678     34.06449059     38.04726575      1.73697796
    O     38.11021475     38.18653656     40.18484693      7.17723774
   Ti     34.13519153     36.10595278     40.54208702      1.70692979
    O     34.17317001     36.06615208     38.46135573      7.12352269
    O     34.18072177     34.06545553     46.41020210      7.24943745
   Ti     35.95480429     34.06376864     45.49749276      1.68478179
    O     34.15124565     35.97606760     42.64401035      7.15133813
   Ti     36.16681808     36.09693390     43.05662512      1.69790820
    O     36.13832572     36.20786797     40.97524094      7.12636045
    O     36.08184984     36.08341545     45.15500928      7.06857442
    O     36.20470279     34.06547232     43.45279171      7.11959801
   Ti     38.10769632     34.06595258     38.16967102      1.71998649
    O     42.35072016     38.10687105     40.18543317      7.33435388
   Ti     38.14747753     36.13455058     40.57619183      1.70176033
    O     38.10656933     36.09802292     38.50194325      7.13001796
    O     37.43966346     34.06543610     46.80914524      7.58875650
    O     38.19056888     36.10928682     42.66060541      7.13718090
   Ti     40.22424048     35.88427780     42.97878095      1.69622010
    O     40.17719771     36.09358677     40.92687199      7.06710823
    O     40.19358442     34.06502634     43.80005569      7.24182404
   Ti     42.12629719     34.06602393     38.30227259      1.61185998
   Ti     42.16160444     36.10851146     40.63905112      1.57809049
    O     42.70066769     35.98700774     38.60697558      7.05452290
    O     42.25607977     36.03967445     42.65941200      7.33658453
   Ti     26.25507817     37.87220337     38.18721579      1.36668448
    O     29.36986165     42.02156256     39.94779869      7.34609122
    O     27.53220519     39.31157225     40.72071457      6.71110309
    O     28.20276728     37.17770553     44.62596719      7.61715154
   Ti     30.09217506     38.00191617     38.00350875      1.73459367
    O     33.85275851     42.21763146     39.91557010      7.34036753
   Ti     29.55872551     40.00583478     40.40855028      1.67467498
    O     29.79587235     39.99048807     38.32258212      7.07683787
   Ti     32.40456094     38.05526319     45.46548593      1.13577402
    O     29.83759041     40.27710536     42.42857423      7.32214582
   Ti     31.81575998     39.86687166     42.51929304      1.38385084
    O     31.70906483     40.00970772     40.50358153      7.13465124
    O     32.16014197     38.14553041     43.47662640      6.99738706
   Ti     34.09198913     38.05007573     37.97605487      1.72708529
    O     37.90842371     42.28844748     40.00644794      7.34511742
   Ti     33.77376139     40.19487234     40.24741844      1.70988344
    O     33.94434907     40.09569238     38.18379305      7.07665397
    O     34.13843642     38.68922601     46.17352259      7.18472535
   Ti     35.85504738     38.04372438     45.42865209      1.13652595
    O     33.75465657     40.50013121     42.31546629      7.07772484
   Ti     35.69171804     39.91068316     42.55683955      1.41958693
    O     35.83094832     39.96132880     40.54863197      7.12173332
    O     35.97627956     38.13685832     43.43014788      6.99137092
   Ti     38.10827184     38.11191052     38.09065399      1.71233686
   Ti     37.91330722     40.26725219     40.47528283      1.75687767
    O     37.97582426     40.14401141     38.39111204      7.08060080
    O     37.54001823     40.68528367     42.47855852      7.33079792
    O     39.89789799     40.29657958     40.88630170      7.64837525
    O     40.24134732     37.30921853     44.36202492      7.59438163
   Ti     42.09097032     37.84780628     38.18107166      1.40460615
   Ti     30.08993262     41.94323051     38.04266670      1.39456701
   Ti     33.91529104     42.07028314     37.89304643      1.60906781
   Ti     37.72173578     42.08291842     37.99925647      1.39964059
