  271
Geometry Step: 134
    O     28.09059387     28.05054448     35.33201451      7.64660579
    O     34.15887977     30.82152408     29.29194778      7.59457751
    O     29.84399787     25.94975823     35.98616279      7.33135353
   Ti     31.85367717     26.07245379     35.56262590      1.57596044
    O     31.89719638     25.67901557     37.63048787      7.06477674
    O     30.76170923     27.97678054     31.79113046      7.59929618
   Ti     32.20580811     27.95670344     33.16045951      1.69462663
    O     32.12236819     28.02680391     35.21689229      7.06165764
    O     31.91946412     25.94717645     33.53526836      7.34321561
    O     33.87045412     25.69609823     35.84593899      7.13210899
   Ti     35.89943588     26.01146899     35.55643584      1.58079336
    O     35.81630949     25.51501160     37.60110786      7.06046226
    O     34.00887139     27.96424104     32.30800557      7.23732612
   Ti     35.79508461     27.95169838     33.19507084      1.69671458
    O     35.93877879     27.99339830     35.24866321      7.06695661
    O     35.86704843     25.91432501     33.53327788      7.34181485
    O     37.89625797     25.74748617     35.97079849      7.33635233
    O     37.27709725     27.86993504     31.87623401      7.59396993
    O     40.21245711     27.93975924     35.43251536      7.64412659
    O     29.64965618     34.06885121     29.82668315      7.18494195
    O     26.00014559     29.81055280     36.24814074      7.32942800
   Ti     27.94948762     30.05655353     35.59567640      1.76145464
    O     28.14360102     30.62651681     37.58924320      7.07817638
   Ti     28.16152783     32.21647337     33.41528896      1.43368621
    O     28.34656579     32.10946739     35.40418278      7.09369931
    O     27.43527353     30.35726558     33.61446954      7.31525289
    O     34.05986365     34.06882889     29.77453585      7.23737522
   Ti     30.14378901     32.32314930     30.61443489      1.13564187
    O     30.02823650     29.95452696     35.91909377      7.18057748
   Ti     32.06288015     30.05242237     35.52884233      1.71671722
    O     32.07705919     30.05672419     37.60458035      7.11937762
    O     29.98845803     32.17524944     32.60849319      6.99257252
   Ti     32.02718758     32.03499100     33.04097491      1.68992434
    O     32.08766892     32.04142578     30.95156847      7.06120279
    O     31.98110822     32.06066929     35.12133557      7.12567944
    O     32.03703478     30.00283859     33.44523081      7.14166596
    O     38.69854649     34.06636981     30.05658492      7.18502167
   Ti     34.09614126     32.27609889     30.64401105      1.68333109
    O     34.10398026     30.15685956     35.89922732      7.15896089
   Ti     36.15445712     30.02398363     35.56919597      1.70398662
    O     36.10665178     30.03762462     37.64634603      7.12514994
    O     34.07188840     32.05122034     32.69423961      7.12330310
   Ti     36.10462331     32.02981713     33.10271909      1.68957159
    O     36.10705510     32.15752872     31.01515737      7.06286808
    O     36.24693086     32.04208072     35.17927316      7.13421843
    O     36.06468254     29.98929098     33.48649949      7.14347849
   Ti     38.07160518     32.31946522     30.74048917      1.13634361
    O     38.18692340     29.90280651     35.98575141      7.17002566
   Ti     40.27075261     29.94348380     35.71410074      1.76122621
    O     40.14474591     30.01715773     37.80059667      7.08017983
    O     38.15446947     32.08216020     32.73040620      6.99093622
   Ti     39.94818715     32.14137044     33.59712081      1.42080280
    O     40.00267337     32.02955333     35.60746651      7.11135387
    O     40.62736162     30.25477616     33.69338473      7.32683600
    O     42.29195564     29.92744807     36.17438453      7.33973289
    O     25.96064566     34.07729343     36.36508210      7.34238902
   Ti     27.95468478     34.06989711     35.85612046      1.70844514
    O     28.12389263     34.07454439     37.93338479      7.07978406
   Ti     28.15883152     35.92842186     33.41624567      1.43410692
    O     28.35149314     36.03272958     35.40448762      7.09360115
    O     27.43103937     34.07217278     33.79265807      7.07011815
    O     34.16111710     37.31108602     29.29555802      7.59435105
   Ti     30.14276060     35.81402628     30.61667643      1.13516718
    O     30.06846881     34.07063515     36.04874707      7.18632391
   Ti     32.09218707     34.06340023     35.54148690      1.70777836
    O     32.15557546     34.03506806     37.61506625      7.12632183
    O     29.98640697     35.96658699     32.61049087      6.99285694
   Ti     32.02517197     36.10457202     33.04621359      1.68881197
    O     32.08668526     36.09328861     30.95668028      7.06124252
    O     31.98947218     36.07244978     35.12730269      7.12606179
    O     32.09624091     34.06918425     33.43814370      7.16222652
   Ti     34.09517293     35.85896562     30.64985177      1.68315233
    O     34.13795107     34.06330344     35.94095965      7.16499657
   Ti     36.18681368     34.06522551     35.58444722      1.70669627
    O     36.14513847     34.06278185     37.66514935      7.12134571
    O     34.07079694     36.08833208     32.70018942      7.12402999
   Ti     36.10382453     36.10655948     33.10942774      1.68914090
    O     36.10604918     35.97520236     31.02242457      7.06283451
    O     36.25003533     36.08636473     35.18562790      7.13297752
    O     36.07768204     34.06746283     33.49936219      7.15591267
   Ti     38.07040057     35.81034397     30.74765734      1.13605359
    O     38.20887166     34.06094823     36.07049645      7.17408968
   Ti     40.29350899     34.05941675     35.89672335      1.71913989
    O     40.17856870     34.05108596     37.96255774      7.07354010
    O     38.15389109     36.04848808     32.73758112      6.99121843
   Ti     39.94762387     35.98385275     33.60392469      1.42057270
    O     40.00692636     36.08904020     35.61477007      7.10931664
    O     40.59126674     34.06222975     33.81288756      7.07187169
    O     42.31441250     34.05878532     36.25189807      7.34068284
    O     26.01097921     38.34825834     36.26475778      7.32818804
   Ti     27.95423941     38.07950598     35.60625205      1.76243152
    O     28.14997184     37.49207909     37.59668277      7.07738100
    O     28.10768658     40.08119518     35.32196577      7.64681215
    O     27.42262534     37.78229806     33.62838499      7.31599819
    O     30.03345750     38.17621906     35.92734056      7.18054077
   Ti     32.06824117     38.07616889     35.53844661      1.71724919
    O     32.08303754     38.08371243     37.61337992      7.12091247
    O     30.74203820     40.18369136     31.82903548      7.59931310
   Ti     32.19925061     40.18466313     33.18462447      1.69489220
    O     32.12584374     40.10737966     35.23979065      7.06260583
    O     32.03070630     38.13632610     33.45573074      7.14158379
    O     34.11071287     37.97202394     35.90261522      7.15880752
   Ti     36.16304907     38.10381352     35.58103126      1.70439483
    O     36.11538281     38.07290979     37.65763860      7.12479559
    O     34.00313117     40.17724403     32.33384147      7.23784491
   Ti     35.78989990     40.18518557     33.22058969      1.69648357
    O     35.94487486     40.13369099     35.27341719      7.06663379
    O     36.06841255     38.14650006     33.49869902      7.14352307
    O     38.19572212     38.21490285     35.99988017      7.17021956
   Ti     40.27998854     38.17059320     35.72892896      1.76216664
    O     40.15542259     38.09558479     37.81552628      7.08118487
    O     37.27125578     40.28665742     31.90288835      7.59359453
    O     40.21741602     40.17370953     35.44714007      7.64433713
    O     40.63059563     37.86873732     33.70582636      7.32693040
    O     42.30144586     38.18697874     36.18879206      7.33986078
    O     29.84904624     42.19431939     36.01421040      7.33119513
   Ti     31.86037080     42.06034728     35.59693914      1.57589190
    O     31.90115919     42.43270234     37.66876026      7.06446006
    O     31.92376986     42.19421841     33.56945698      7.34418235
    O     33.87469484     42.44229231     35.88893572      7.13147484
   Ti     35.90059021     42.11541111     35.59219763      1.58017582
    O     35.82199668     42.59365105     37.64082161      7.06017746
    O     35.85006128     42.22097229     33.56937577      7.34237545
    O     37.89798268     42.38508312     36.00105594      7.33569296
    O     29.37949451     26.11874716     39.93746274      7.34740639
    O     33.80380791     25.90042513     39.92426420      7.33917084
    O     37.89105267     25.82873010     39.99357336      7.34708744
    O     26.96874073     30.06247416     40.12220392      6.49699369
    O     29.88890716     30.12639282     40.09918347      7.13569726
    O     27.52554244     28.82515237     40.73232325      6.70723742
   Ti     30.00434465     26.23328386     37.99902537      1.39159156
    O     33.94490687     29.99898896     40.06829491      7.17095025
   Ti     29.54669219     28.13304991     40.41183786      1.67553981
    O     29.65957400     28.17454800     38.31392349      7.07650956
    O     29.84199075     27.87909324     42.43381863      7.32274493
   Ti     31.81598717     28.30822306     42.50934616      1.38374601
    O     31.69797935     28.14757443     40.49331549      7.13623773
   Ti     33.87892473     26.04541628     37.90345987      1.60277144
    O     38.11593100     29.93021159     40.17170305      7.17557595
   Ti     33.76119177     27.92695075     40.24666764      1.70804437
    O     33.96361028     28.02099259     38.18721379      7.07902930
    O     33.74367062     27.64130039     42.31556364      7.07643586
   Ti     35.68697965     28.21424406     42.54987904      1.41688775
    O     35.82682296     28.14011009     40.54091357      7.12520865
   Ti     37.71135506     26.03341275     37.98340042      1.39601662
    O     42.37434690     30.01086824     40.16236347      7.33365872
   Ti     37.91122877     27.85037053     40.46316451      1.75609068
    O     37.98428007     27.97130564     38.37906480      7.08212334
    O     37.54176384     27.45202540     42.47128888      7.33210780
    O     39.89866528     27.81006717     40.86350783      7.64907738
    O     25.97603995     34.07040059     40.48235568      7.16227365
   Ti     26.28512892     30.28505897     38.19152680      1.37398554
    O     30.50154033     34.05925717     40.20101679      7.15876326
   Ti     26.41881123     32.03270681     40.71351901      1.52054680
    O     25.67033539     32.10099485     38.77272239      7.04872246
    O     26.23996246     31.83993384     42.71144933      7.31551881
   Ti     28.18631733     32.30602206     43.16374014      1.69502970
    O     28.28153715     32.62665775     41.11436893      7.06716557
    O     28.22031959     30.90060121     44.58849753      7.61505232
   Ti     30.08237175     30.14326216     38.00990549      1.73373711
    O     34.11587397     34.05472944     40.15545509      7.15645910
   Ti     30.18838322     32.07187511     40.63678897      1.73356223
    O     30.32563744     32.09268737     38.55498289      7.12703340
   Ti     32.44180536     30.09293309     45.49602491      1.13446070
    O     30.16112181     31.93024057     42.73734251      7.13900185
   Ti     32.18012312     32.04681538     43.13830605      1.70397636
    O     32.17214807     31.92864250     41.06135610      7.12157901
    O     32.31369161     32.06228141     45.22485283      7.06271585
    O     32.19890875     29.99881492     43.50648616      6.99692555
   Ti     34.08877636     30.07130469     37.98496625      1.72421354
    O     38.11108400     34.05188122     40.24435516      7.16687232
   Ti     34.15203117     32.01588541     40.55661798      1.70548272
    O     34.17110123     32.05562458     38.47450328      7.12341986
    O     34.19076821     29.55632815     46.24445959      7.18452166
   Ti     35.91302675     30.09074916     45.42994857      1.13573772
    O     34.18218957     32.16230375     42.65860095      7.15593011
   Ti     36.20728928     32.01859619     43.04551166      1.69757025
    O     36.16139215     31.92698438     40.96489866      7.12661787
    O     36.26334476     32.03338200     45.14524595      7.06789059
    O     35.94353926     29.98893397     43.42883957      6.99068570
   Ti     38.10925716     30.00447253     38.07915352      1.71236949
    O     42.41159370     34.05006330     40.34521394      7.13381607
   Ti     38.17221973     31.98144903     40.55923863      1.70129101
    O     38.11820889     32.02084269     38.48636305      7.13108648
    O     38.22724562     31.97028365     42.64241951      7.13535734
   Ti     40.25708287     32.22460445     42.95665086      1.69576373
    O     40.20455763     32.03108189     40.90156594      7.06801502
    O     40.28971475     30.79938178     44.34137599      7.59588513
   Ti     42.09248416     30.26057797     38.16002697      1.40520027
   Ti     42.18827993     32.00981075     40.61043005      1.57894388
    O     42.70354651     32.12339513     38.57191474      7.05689465
    O     42.28719624     32.07266895     42.63163812      7.33656792
    O     26.95920309     38.08221312     40.13941248      6.49532786
   Ti     26.16541324     34.07645328     38.39247938      1.55621613
    O     29.87498500     37.98652458     40.10307130      7.13559284
   Ti     26.41748528     36.10696688     40.72192375      1.52009599
    O     25.66440009     36.04712447     38.78184590      7.04857696
    O     26.24718883     36.27718488     42.72293453      7.31763985
   Ti     28.19956865     35.80582166     43.15830593      1.69500789
    O     28.28698871     35.51985579     41.10491572      7.06831482
    O     28.11333779     34.05745608     44.09463320      7.21565379
   Ti     30.17477463     34.06478893     38.12507879      1.74603195
    O     33.97811757     38.11228361     40.06840470      7.16585509
   Ti     30.20635718     36.04299306     40.63294196      1.73502004
    O     30.37305840     36.03273247     38.55285033      7.12641687
    O     31.07964205     34.22545990     46.89964272      7.57847930
   Ti     32.51868086     34.07289632     45.55710644      1.68630973
    O     30.18524565     36.12699615     42.73492200      7.14432669
   Ti     32.21438114     36.09672030     43.12691820      1.70403163
    O     32.19046400     36.21894326     41.05113206      7.12170922
    O     32.70305199     36.07886152     45.16673631      7.06768212
    O     32.08566538     34.07573266     43.54176868      7.11610854
   Ti     34.14350622     34.05367742     38.05165704      1.73790835
    O     38.13150961     38.17639775     40.18597480      7.17718984
   Ti     34.16754373     36.09470196     40.53673091      1.71179217
    O     34.15128632     36.05854699     38.45506172      7.12389538
    O     34.31280875     33.92786469     46.43086847      7.25101389
   Ti     36.06359386     34.04554154     45.47849478      1.68711260
    O     34.20185864     35.99061019     42.62473673      7.13964211
   Ti     36.20825385     36.08329516     43.03752948      1.70081826
    O     36.17623805     36.17380280     40.95521546      7.12803343
    O     36.00071874     36.06578167     45.12693068      7.06959151
    O     36.26548616     34.05110751     43.43057435      7.11757237
   Ti     38.12765219     34.05576164     38.15976856      1.71890193
    O     42.39380837     38.08997748     40.17680455      7.33347802
   Ti     38.18738195     36.12175713     40.56385118      1.70175292
    O     38.13240567     36.08893739     38.49107683      7.13057222
    O     37.60819280     34.15284533     46.71139071      7.58590900
    O     38.23482116     36.09613153     42.64820889      7.13915237
   Ti     40.26847341     35.86216099     42.96125563      1.69664228
    O     40.21782800     36.06980840     40.90912353      7.06655252
    O     40.21098382     34.04233269     43.77876543      7.24074312
   Ti     42.15044155     34.05576039     38.27764517      1.60999789
   Ti     42.20183360     36.09080678     40.61911167      1.57852951
    O     42.71055533     35.98299758     38.57844836      7.05620249
    O     42.29924314     36.01491492     42.63976037      7.33647904
   Ti     26.29741700     37.85864109     38.20348438      1.37638047
    O     29.37484074     41.99728304     39.96152396      7.34701622
    O     27.53327179     39.31009277     40.75067334      6.70689815
    O     28.26620494     37.22894679     44.56271279      7.61331633
   Ti     30.08756525     37.97991774     38.01677601      1.73366455
    O     33.81594413     42.20173846     39.96343188      7.33860526
   Ti     29.55893945     39.98245796     40.42581595      1.67754069
    O     29.68114789     39.95102843     38.32758635      7.07523261
   Ti     32.51605856     38.03264127     45.49923028      1.29760259
    O     29.83918785     40.27656234     42.44426207      7.32442936
   Ti     31.81148647     39.83842998     42.54355861      1.38263805
    O     31.70997212     39.96389400     40.52452582      7.13515195
    O     32.05877073     38.12755087     43.54797413      6.99535466
   Ti     34.09614559     38.04781814     37.98721427      1.72649545
    O     37.92455097     42.28130658     40.01533643      7.34577392
   Ti     33.77582168     40.17434369     40.27634042      1.70808848
    O     33.97442644     40.09457268     38.21457318      7.07876548
    O     34.23483383     38.85444699     46.02650706      7.18474945
   Ti     35.92872150     38.03802437     45.40601852      1.13577507
    O     33.76301252     40.43402264     42.34731277      7.07706754
   Ti     35.72095135     39.90178681     42.57123218      1.41486967
    O     35.84883915     39.97360164     40.56247024      7.12614734
    O     36.10254596     38.12967039     43.41069572      6.99263740
   Ti     38.11812088     38.10716622     38.09268878      1.71139055
   Ti     37.93286556     40.25879579     40.48155548      1.75583156
    O     37.99608297     40.13945670     38.39837021      7.07982621
    O     37.56472548     40.69027490     42.48367619      7.33380147
    O     39.91867919     40.28908646     40.88827655      7.64860616
    O     40.29253225     37.28784314     44.34362090      7.59454965
   Ti     42.10346053     37.84933900     38.17422787      1.40431107
   Ti     30.00225207     41.89552955     38.02452833      1.39513316
   Ti     33.88337313     42.06906284     37.94231625      1.60409792
   Ti     37.71891365     42.07585573     38.01009937      1.40021193
    H     30.73961372     38.34317932     46.72892623      0.91789794
    H     31.27223411     38.25630170     47.28311023      0.91681129
